# vtk DataFile Version 2.0
untitled, Created by Gmsh 4.12.1 
ASCII
DATASET UNSTRUCTURED_GRID
POINTS 196 double
0 -0.5 0
1 -0.5 0
1 0.5 0
0 0.5 0
0 -0.5 0.1
1 -0.5 0.1
1 0.5 0.1
0 0.5 0.1
0.1249999999999996 -0.5 0
0.2499999999999992 -0.5 0
0.3749999999999987 -0.5 0
0.4999999999999983 -0.5 0
0.6249999999999983 -0.5 0
0.7499999999999989 -0.5 0
0.8749999999999994 -0.5 0
1 -0.3750000000000003 0
1 -0.2500000000000008 0
1 -0.1250000000000013 0
1 -1.720845688168993e-15 0
1 0.1249999999999983 0
1 0.2499999999999989 0
1 0.3749999999999994 0
0.8750000000000003 0.5 0
0.7500000000000009 0.5 0
0.6250000000000013 0.5 0
0.5000000000000018 0.5 0
0.3750000000000017 0.5 0
0.2500000000000011 0.5 0
0.1250000000000006 0.5 0
0 0.3750000000000003 0
0 0.2500000000000008 0
0 0.1250000000000013 0
0 1.720845688168993e-15 0
0 -0.1249999999999983 0
0 -0.2499999999999989 0
0 -0.3749999999999994 0
0.1249999999999996 -0.5 0.1
0.2499999999999992 -0.5 0.1
0.3749999999999987 -0.5 0.1
0.4999999999999983 -0.5 0.1
0.6249999999999983 -0.5 0.1
0.7499999999999989 -0.5 0.1
0.8749999999999994 -0.5 0.1
1 -0.3750000000000003 0.1
1 -0.2500000000000008 0.1
1 -0.1250000000000013 0.1
1 -1.720845688168993e-15 0.1
1 0.1249999999999983 0.1
1 0.2499999999999989 0.1
1 0.3749999999999994 0.1
0.8750000000000003 0.5 0.1
0.7500000000000009 0.5 0.1
0.6250000000000013 0.5 0.1
0.5000000000000018 0.5 0.1
0.3750000000000017 0.5 0.1
0.2500000000000011 0.5 0.1
0.1250000000000006 0.5 0.1
0 0.3750000000000003 0.1
0 0.2500000000000008 0.1
0 0.1250000000000013 0.1
0 1.720845688168993e-15 0.1
0 -0.1249999999999983 0.1
0 -0.2499999999999989 0.1
0 -0.3749999999999994 0.1
0.5624999999999983 -0.3917468245269453 0
0.8892750608242204 0.06409486310622881 0
0.4375000000000017 0.3917468245269452 0
0.1212591409525242 -0.0688788296333864 0
0.8817373148982087 -0.1692259739230113 0
0.6901440061353823 0.3929642537834739 0
0.1082531754730544 0.1875000000000011 0
0.3128108659848016 -0.3955068139135627 0
0.8124999999999991 -0.3917468245269447 0
0.8905148078112939 0.2966579344023305 0
0.1880296711601104 0.3941534943680206 0
0.1207695367636878 -0.3130906423764598 0
0.3125882785266863 0.3921479361671243 0
0.3777617321220961 0.2851464931728503 0
0.5004961483860462 0.2837484194668302 0
0.4407899991190055 0.1771444015150827 0
0.5650028818995985 0.1767256437688217 0
0.5004925919233526 0.06727548672361799 0
0.3869445459155144 0.06729820423321181 0
0.4430113547926776 -0.04315124626834262 0
0.5635006577860066 -0.04153207407981123 0
0.5010853354297828 -0.1498776471079284 0
0.3795379468566102 -0.1518782647270535 0
0.625126700268211 -0.1495570017562164 0
0.6876878930090373 -0.04131656830400995 0
0.4375000000000036 -0.2577722283113816 0
0.7500000000000021 -0.149519052838326 0
0.6866823226935825 -0.2523710758224005 0
0.3141186577018459 -0.2503445671755743 0
0.2441861784173074 -0.1422638897928863 0
0.8124289598209156 -0.04499752444517856 0
0.7500000000000012 0.06698729810778287 0
0.8221267806278797 0.1767859519478137 0
0.6985159856983616 0.1821170180028854 0
0.76440431770694 0.286473502473394 0
0.2353327497989633 0.2709339938931861 0
0.6874999999999987 -0.3917468245269447 0
0.1082531754730551 -0.1874999999999986 0
0.2225773635183453 -0.0265527863109688 0
0.1371230544775078 0.06179824679307258 0
0.2180925346566123 0.1548089281474123 0
0.4374999999999987 -0.3917468245269454 0
0.5630592187859345 0.3919714875316361 0
0.6275333350527263 0.06837613403654778 0
0.627057457115895 0.2842066334713403 0
0.5625000000000031 -0.2577722283113811 0
0.8965842169427862 -0.3066379931605246 0
0.1040995142213904 0.312067822096679 0
0.1918537211813871 -0.4070743513265298 0
0.8088666438715136 0.3971730864405825 0
0.2076726243499241 -0.2437108203920371 0
0.7989110605589017 -0.2499266504670595 0
0.3260739896909639 0.1776007663169696 0
0.9154642987624895 -0.0625000000000015 0
0.3281599222654002 -0.04227586365828034 0
0.9226624454742072 0.1874999999999986 0
0.90849364905389 0.4084936490538897 0
0.09150635094611026 0.4084936490538899 0
0.09150635094611009 -0.4084936490538897 0
0.9084936490538897 -0.4084936490538899 0
0.269828568420724 0.06544624925356954 0
0.6249999999999982 -0.3247595264191654 0
0.4999999999999985 -0.3247595264191657 0
0.3749999999999987 -0.3247595264191661 0
0.7398391678755445 -0.3246932293951378 0
0.2510355733937241 -0.3253550026152665 0
0.5624999999999983 -0.3917468245269453 0.1
0.8892750608242204 0.06409486310622881 0.1
0.4375000000000017 0.3917468245269452 0.1
0.1212591409525242 -0.0688788296333864 0.1
0.8817373148982087 -0.1692259739230113 0.1
0.6901440061353823 0.3929642537834739 0.1
0.1082531754730544 0.1875000000000011 0.1
0.3128108659848016 -0.3955068139135627 0.1
0.8124999999999991 -0.3917468245269447 0.1
0.8905148078112939 0.2966579344023305 0.1
0.1880296711601104 0.3941534943680206 0.1
0.1207695367636878 -0.3130906423764598 0.1
0.3125882785266863 0.3921479361671243 0.1
0.3777617321220961 0.2851464931728503 0.1
0.5004961483860462 0.2837484194668302 0.1
0.4407899991190055 0.1771444015150827 0.1
0.5650028818995985 0.1767256437688217 0.1
0.5004925919233526 0.06727548672361799 0.1
0.3869445459155144 0.06729820423321181 0.1
0.4430113547926776 -0.04315124626834262 0.1
0.5635006577860066 -0.04153207407981123 0.1
0.5010853354297828 -0.1498776471079284 0.1
0.3795379468566102 -0.1518782647270535 0.1
0.625126700268211 -0.1495570017562164 0.1
0.6876878930090373 -0.04131656830400995 0.1
0.4375000000000036 -0.2577722283113816 0.1
0.7500000000000021 -0.149519052838326 0.1
0.6866823226935825 -0.2523710758224005 0.1
0.3141186577018459 -0.2503445671755743 0.1
0.2441861784173074 -0.1422638897928863 0.1
0.8124289598209156 -0.04499752444517856 0.1
0.7500000000000012 0.06698729810778287 0.1
0.8221267806278797 0.1767859519478137 0.1
0.6985159856983616 0.1821170180028854 0.1
0.76440431770694 0.286473502473394 0.1
0.2353327497989633 0.2709339938931861 0.1
0.6874999999999987 -0.3917468245269447 0.1
0.1082531754730551 -0.1874999999999986 0.1
0.2225773635183453 -0.0265527863109688 0.1
0.1371230544775078 0.06179824679307258 0.1
0.2180925346566123 0.1548089281474123 0.1
0.4374999999999987 -0.3917468245269454 0.1
0.5630592187859345 0.3919714875316361 0.1
0.6275333350527263 0.06837613403654778 0.1
0.627057457115895 0.2842066334713403 0.1
0.5625000000000031 -0.2577722283113811 0.1
0.8965842169427862 -0.3066379931605246 0.1
0.1040995142213904 0.312067822096679 0.1
0.1918537211813871 -0.4070743513265298 0.1
0.8088666438715136 0.3971730864405825 0.1
0.2076726243499241 -0.2437108203920371 0.1
0.7989110605589017 -0.2499266504670595 0.1
0.3260739896909639 0.1776007663169696 0.1
0.9154642987624895 -0.0625000000000015 0.1
0.3281599222654002 -0.04227586365828034 0.1
0.9226624454742072 0.1874999999999986 0.1
0.90849364905389 0.4084936490538897 0.1
0.09150635094611026 0.4084936490538899 0.1
0.09150635094611009 -0.4084936490538897 0.1
0.9084936490538897 -0.4084936490538899 0.1
0.269828568420724 0.06544624925356954 0.1
0.6249999999999982 -0.3247595264191654 0.1
0.4999999999999985 -0.3247595264191657 0.1
0.3749999999999987 -0.3247595264191661 0.1
0.7398391678755445 -0.3246932293951378 0.1
0.2510355733937241 -0.3253550026152665 0.1

CELLS 594 2810
1 0
1 1
1 2
1 3
1 4
1 5
1 6
1 7
2 0 8
2 8 9
2 9 10
2 10 11
2 11 12
2 12 13
2 13 14
2 14 1
2 1 15
2 15 16
2 16 17
2 17 18
2 18 19
2 19 20
2 20 21
2 21 2
2 2 22
2 22 23
2 23 24
2 24 25
2 25 26
2 26 27
2 27 28
2 28 3
2 3 29
2 29 30
2 30 31
2 31 32
2 32 33
2 33 34
2 34 35
2 35 0
2 0 4
2 1 5
2 4 36
2 36 37
2 37 38
2 38 39
2 39 40
2 40 41
2 41 42
2 42 5
2 2 6
2 5 43
2 43 44
2 44 45
2 45 46
2 46 47
2 47 48
2 48 49
2 49 6
2 3 7
2 6 50
2 50 51
2 51 52
2 52 53
2 53 54
2 54 55
2 55 56
2 56 7
2 7 57
2 57 58
2 58 59
2 59 60
2 60 61
2 61 62
2 62 63
2 63 4
3 99 111 70
3 70 104 99
3 67 101 93
3 68 94 90
3 93 102 67
3 68 117 94
3 32 103 31
3 73 98 96
3 69 108 98
3 96 119 73
3 67 103 32
3 31 103 70
3 65 96 95
3 65 95 94
3 80 107 97
3 98 108 97
3 74 111 99
3 102 103 67
3 97 107 95
3 97 108 80
3 102 124 103
3 103 124 104
3 101 114 93
3 90 115 68
3 96 97 95
3 110 115 72
3 115 128 72
3 104 116 99
3 103 104 70
3 96 98 97
3 98 113 69
3 78 108 106
3 80 108 78
3 106 108 69
3 76 99 77
3 12 100 64
3 26 76 66
3 76 77 66
3 27 76 26
3 33 101 67
3 74 99 76
3 13 100 12
3 72 100 13
3 74 76 27
3 75 101 34
3 77 78 66
3 19 65 18
3 26 66 25
3 66 106 25
3 33 67 32
3 34 101 33
3 78 106 66
3 12 64 11
3 14 72 13
3 11 105 10
3 10 105 71
3 64 105 11
3 21 73 20
3 28 74 27
3 35 75 34
3 79 80 78
3 17 68 16
3 79 81 80
3 95 107 88
3 24 69 23
3 24 106 69
3 31 70 30
3 79 82 81
3 81 107 80
3 83 86 85
3 87 90 88
3 10 71 9
3 25 106 24
3 77 79 78
3 83 84 81
3 83 85 84
3 85 87 84
3 87 88 84
3 86 89 85
3 82 83 81
3 84 107 81
3 88 107 84
3 86 92 89
3 94 95 88
3 89 109 85
3 85 109 87
3 87 91 90
3 87 109 91
3 90 94 88
3 86 93 92
3 93 118 102
3 112 129 75
3 75 129 114
3 16 110 15
3 9 112 8
3 30 111 29
3 94 117 65
3 23 113 22
3 69 113 23
3 65 119 96
3 71 112 9
3 68 110 16
3 70 111 30
3 82 124 118
3 73 113 98
3 99 116 77
3 79 116 82
3 65 117 18
3 17 117 68
3 82 118 83
3 86 118 93
3 73 119 20
3 19 119 65
3 22 120 2
3 15 123 1
3 3 121 28
3 29 121 3
3 0 122 35
3 2 120 21
3 8 122 0
3 1 123 14
3 116 124 82
3 75 114 101
3 93 114 92
3 91 115 90
3 118 124 102
3 77 116 79
3 68 115 110
3 18 117 17
3 83 118 86
3 104 124 116
3 110 123 15
3 112 122 8
3 111 121 29
3 20 119 19
3 14 123 72
3 21 120 73
3 28 121 74
3 35 122 75
3 113 120 22
3 125 128 91
3 89 127 126
3 109 126 125
3 100 125 64
3 92 127 89
3 89 126 109
3 109 125 91
3 126 127 105
3 105 127 71
3 64 126 105
3 125 126 64
3 100 128 125
3 72 128 100
3 74 121 111
3 75 122 112
3 72 123 110
3 92 129 127
3 127 129 71
3 73 120 113
3 71 129 112
3 91 128 115
3 114 129 92
4 0 8 36 4
4 8 9 37 36
4 9 10 38 37
4 10 11 39 38
4 11 12 40 39
4 12 13 41 40
4 13 14 42 41
4 14 1 5 42
4 1 15 43 5
4 15 16 44 43
4 16 17 45 44
4 17 18 46 45
4 18 19 47 46
4 19 20 48 47
4 20 21 49 48
4 21 2 6 49
4 2 22 50 6
4 22 23 51 50
4 23 24 52 51
4 24 25 53 52
4 25 26 54 53
4 26 27 55 54
4 27 28 56 55
4 28 3 7 56
4 3 29 57 7
4 29 30 58 57
4 30 31 59 58
4 31 32 60 59
4 32 33 61 60
4 33 34 62 61
4 34 35 63 62
4 35 0 4 63
3 165 177 136
3 136 170 165
3 133 167 159
3 134 160 156
3 159 168 133
3 134 183 160
3 60 169 59
3 139 164 162
3 135 174 164
3 162 185 139
3 133 169 60
3 59 169 136
3 131 162 161
3 131 161 160
3 146 173 163
3 164 174 163
3 140 177 165
3 168 169 133
3 163 173 161
3 163 174 146
3 168 190 169
3 169 190 170
3 167 180 159
3 156 181 134
3 162 163 161
3 176 181 138
3 181 194 138
3 170 182 165
3 169 170 136
3 162 164 163
3 164 179 135
3 144 174 172
3 146 174 144
3 172 174 135
3 142 165 143
3 40 166 130
3 54 142 132
3 142 143 132
3 55 142 54
3 61 167 133
3 140 165 142
3 41 166 40
3 138 166 41
3 140 142 55
3 141 167 62
3 143 144 132
3 47 131 46
3 54 132 53
3 132 172 53
3 61 133 60
3 62 167 61
3 144 172 132
3 40 130 39
3 42 138 41
3 39 171 38
3 38 171 137
3 130 171 39
3 49 139 48
3 56 140 55
3 63 141 62
3 145 146 144
3 45 134 44
3 145 147 146
3 161 173 154
3 52 135 51
3 52 172 135
3 59 136 58
3 145 148 147
3 147 173 146
3 149 152 151
3 153 156 154
3 38 137 37
3 53 172 52
3 143 145 144
3 149 150 147
3 149 151 150
3 151 153 150
3 153 154 150
3 152 155 151
3 148 149 147
3 150 173 147
3 154 173 150
3 152 158 155
3 160 161 154
3 155 175 151
3 151 175 153
3 153 157 156
3 153 175 157
3 156 160 154
3 152 159 158
3 159 184 168
3 178 195 141
3 141 195 180
3 44 176 43
3 37 178 36
3 58 177 57
3 160 183 131
3 51 179 50
3 135 179 51
3 131 185 162
3 137 178 37
3 134 176 44
3 136 177 58
3 148 190 184
3 139 179 164
3 165 182 143
3 145 182 148
3 131 183 46
3 45 183 134
3 148 184 149
3 152 184 159
3 139 185 48
3 47 185 131
3 50 186 6
3 43 189 5
3 7 187 56
3 57 187 7
3 4 188 63
3 6 186 49
3 36 188 4
3 5 189 42
3 182 190 148
3 141 180 167
3 159 180 158
3 157 181 156
3 184 190 168
3 143 182 145
3 134 181 176
3 46 183 45
3 149 184 152
3 170 190 182
3 176 189 43
3 178 188 36
3 177 187 57
3 48 185 47
3 42 189 138
3 49 186 139
3 56 187 140
3 63 188 141
3 179 186 50
3 191 194 157
3 155 193 192
3 175 192 191
3 166 191 130
3 158 193 155
3 155 192 175
3 175 191 157
3 192 193 171
3 171 193 137
3 130 192 171
3 191 192 130
3 166 194 191
3 138 194 166
3 140 187 177
3 141 188 178
3 138 189 176
3 158 195 193
3 193 195 137
3 139 186 179
3 137 195 178
3 157 194 181
3 180 195 158
6 99 70 111 165 136 177
6 70 99 104 136 165 170
6 67 93 101 133 159 167
6 68 90 94 134 156 160
6 93 67 102 159 133 168
6 68 94 117 134 160 183
6 32 31 103 60 59 169
6 73 96 98 139 162 164
6 69 98 108 135 164 174
6 96 73 119 162 139 185
6 67 32 103 133 60 169
6 31 70 103 59 136 169
6 65 95 96 131 161 162
6 65 94 95 131 160 161
6 80 97 107 146 163 173
6 98 97 108 164 163 174
6 74 99 111 140 165 177
6 102 67 103 168 133 169
6 97 95 107 163 161 173
6 97 80 108 163 146 174
6 102 103 124 168 169 190
6 103 104 124 169 170 190
6 101 93 114 167 159 180
6 90 68 115 156 134 181
6 96 95 97 162 161 163
6 110 72 115 176 138 181
6 115 72 128 181 138 194
6 104 99 116 170 165 182
6 103 70 104 169 136 170
6 96 97 98 162 163 164
6 98 69 113 164 135 179
6 78 106 108 144 172 174
6 80 78 108 146 144 174
6 106 69 108 172 135 174
6 76 77 99 142 143 165
6 12 64 100 40 130 166
6 26 66 76 54 132 142
6 76 66 77 142 132 143
6 27 26 76 55 54 142
6 33 67 101 61 133 167
6 74 76 99 140 142 165
6 13 12 100 41 40 166
6 72 13 100 138 41 166
6 74 27 76 140 55 142
6 75 34 101 141 62 167
6 77 66 78 143 132 144
6 19 18 65 47 46 131
6 26 25 66 54 53 132
6 66 25 106 132 53 172
6 33 32 67 61 60 133
6 34 33 101 62 61 167
6 78 66 106 144 132 172
6 12 11 64 40 39 130
6 14 13 72 42 41 138
6 11 10 105 39 38 171
6 10 71 105 38 137 171
6 64 11 105 130 39 171
6 21 20 73 49 48 139
6 28 27 74 56 55 140
6 35 34 75 63 62 141
6 79 78 80 145 144 146
6 17 16 68 45 44 134
6 79 80 81 145 146 147
6 95 88 107 161 154 173
6 24 23 69 52 51 135
6 24 69 106 52 135 172
6 31 30 70 59 58 136
6 79 81 82 145 147 148
6 81 80 107 147 146 173
6 83 85 86 149 151 152
6 87 88 90 153 154 156
6 10 9 71 38 37 137
6 25 24 106 53 52 172
6 77 78 79 143 144 145
6 83 81 84 149 147 150
6 83 84 85 149 150 151
6 85 84 87 151 150 153
6 87 84 88 153 150 154
6 86 85 89 152 151 155
6 82 81 83 148 147 149
6 84 81 107 150 147 173
6 88 84 107 154 150 173
6 86 89 92 152 155 158
6 94 88 95 160 154 161
6 89 85 109 155 151 175
6 85 87 109 151 153 175
6 87 90 91 153 156 157
6 87 91 109 153 157 175
6 90 88 94 156 154 160
6 86 92 93 152 158 159
6 93 102 118 159 168 184
6 112 75 129 178 141 195
6 75 114 129 141 180 195
6 16 15 110 44 43 176
6 9 8 112 37 36 178
6 30 29 111 58 57 177
6 94 65 117 160 131 183
6 23 22 113 51 50 179
6 69 23 113 135 51 179
6 65 96 119 131 162 185
6 71 9 112 137 37 178
6 68 16 110 134 44 176
6 70 30 111 136 58 177
6 82 118 124 148 184 190
6 73 98 113 139 164 179
6 99 77 116 165 143 182
6 79 82 116 145 148 182
6 65 18 117 131 46 183
6 17 68 117 45 134 183
6 82 83 118 148 149 184
6 86 93 118 152 159 184
6 73 20 119 139 48 185
6 19 65 119 47 131 185
6 22 2 120 50 6 186
6 15 1 123 43 5 189
6 3 28 121 7 56 187
6 29 3 121 57 7 187
6 0 35 122 4 63 188
6 2 21 120 6 49 186
6 8 0 122 36 4 188
6 1 14 123 5 42 189
6 116 82 124 182 148 190
6 75 101 114 141 167 180
6 93 92 114 159 158 180
6 91 90 115 157 156 181
6 118 102 124 184 168 190
6 77 79 116 143 145 182
6 68 110 115 134 176 181
6 18 17 117 46 45 183
6 83 86 118 149 152 184
6 104 116 124 170 182 190
6 110 15 123 176 43 189
6 112 8 122 178 36 188
6 111 29 121 177 57 187
6 20 19 119 48 47 185
6 14 72 123 42 138 189
6 21 73 120 49 139 186
6 28 74 121 56 140 187
6 35 75 122 63 141 188
6 113 22 120 179 50 186
6 125 91 128 191 157 194
6 89 126 127 155 192 193
6 109 125 126 175 191 192
6 100 64 125 166 130 191
6 92 89 127 158 155 193
6 89 109 126 155 175 192
6 109 91 125 175 157 191
6 126 105 127 192 171 193
6 105 71 127 171 137 193
6 64 105 126 130 171 192
6 125 64 126 191 130 192
6 100 125 128 166 191 194
6 72 100 128 138 166 194
6 74 111 121 140 177 187
6 75 112 122 141 178 188
6 72 110 123 138 176 189
6 92 127 129 158 193 195
6 127 71 129 193 137 195
6 73 113 120 139 179 186
6 71 112 129 137 178 195
6 91 115 128 157 181 194
6 114 92 129 180 158 195

CELL_TYPES 594
1
1
1
1
1
1
1
1
3
3
3
3
3
3
3
3
3
3
3
3
3
3
3
3
3
3
3
3
3
3
3
3
3
3
3
3
3
3
3
3
3
3
3
3
3
3
3
3
3
3
3
3
3
3
3
3
3
3
3
3
3
3
3
3
3
3
3
3
3
3
3
3
3
3
3
3
5
5
5
5
5
5
5
5
5
5
5
5
5
5
5
5
5
5
5
5
5
5
5
5
5
5
5
5
5
5
5
5
5
5
5
5
5
5
5
5
5
5
5
5
5
5
5
5
5
5
5
5
5
5
5
5
5
5
5
5
5
5
5
5
5
5
5
5
5
5
5
5
5
5
5
5
5
5
5
5
5
5
5
5
5
5
5
5
5
5
5
5
5
5
5
5
5
5
5
5
5
5
5
5
5
5
5
5
5
5
5
5
5
5
5
5
5
5
5
5
5
5
5
5
5
5
5
5
5
5
5
5
5
5
5
5
5
5
5
5
5
5
5
5
5
5
5
5
5
5
5
5
5
5
5
5
5
5
5
5
5
5
9
9
9
9
9
9
9
9
9
9
9
9
9
9
9
9
9
9
9
9
9
9
9
9
9
9
9
9
9
9
9
9
5
5
5
5
5
5
5
5
5
5
5
5
5
5
5
5
5
5
5
5
5
5
5
5
5
5
5
5
5
5
5
5
5
5
5
5
5
5
5
5
5
5
5
5
5
5
5
5
5
5
5
5
5
5
5
5
5
5
5
5
5
5
5
5
5
5
5
5
5
5
5
5
5
5
5
5
5
5
5
5
5
5
5
5
5
5
5
5
5
5
5
5
5
5
5
5
5
5
5
5
5
5
5
5
5
5
5
5
5
5
5
5
5
5
5
5
5
5
5
5
5
5
5
5
5
5
5
5
5
5
5
5
5
5
5
5
5
5
5
5
5
5
5
5
5
5
5
5
5
5
5
5
5
5
5
5
5
5
5
5
5
5
13
13
13
13
13
13
13
13
13
13
13
13
13
13
13
13
13
13
13
13
13
13
13
13
13
13
13
13
13
13
13
13
13
13
13
13
13
13
13
13
13
13
13
13
13
13
13
13
13
13
13
13
13
13
13
13
13
13
13
13
13
13
13
13
13
13
13
13
13
13
13
13
13
13
13
13
13
13
13
13
13
13
13
13
13
13
13
13
13
13
13
13
13
13
13
13
13
13
13
13
13
13
13
13
13
13
13
13
13
13
13
13
13
13
13
13
13
13
13
13
13
13
13
13
13
13
13
13
13
13
13
13
13
13
13
13
13
13
13
13
13
13
13
13
13
13
13
13
13
13
13
13
13
13
13
13
13
13
13
13
13
13

CELL_DATA 594
SCALARS CellEntityIds int 1
LOOKUP_TABLE default
-1
-1
-1
-1
-1
-1
-1
-1
-1
-1
-1
-1
-1
-1
-1
-1
-1
-1
-1
-1
-1
-1
-1
-1
-1
-1
-1
-1
-1
-1
-1
-1
-1
-1
-1
-1
-1
-1
-1
-1
-1
-1
-1
-1
-1
-1
-1
-1
-1
-1
-1
-1
-1
-1
-1
-1
-1
-1
-1
-1
-1
-1
-1
-1
-1
-1
-1
-1
-1
-1
-1
-1
-1
-1
-1
-1
18
18
18
18
18
18
18
18
18
18
18
18
18
18
18
18
18
18
18
18
18
18
18
18
18
18
18
18
18
18
18
18
18
18
18
18
18
18
18
18
18
18
18
18
18
18
18
18
18
18
18
18
18
18
18
18
18
18
18
18
18
18
18
18
18
18
18
18
18
18
18
18
18
18
18
18
18
18
18
18
18
18
18
18
18
18
18
18
18
18
18
18
18
18
18
18
18
18
18
18
18
18
18
18
18
18
18
18
18
18
18
18
18
18
18
18
18
18
18
18
18
18
18
18
18
18
18
18
18
18
18
18
18
18
18
18
18
18
18
18
18
18
18
18
18
18
18
18
18
18
18
18
18
18
18
18
18
18
18
18
18
18
16
16
16
16
16
16
16
16
14
14
14
14
14
14
14
14
15
15
15
15
15
15
15
15
13
13
13
13
13
13
13
13
17
17
17
17
17
17
17
17
17
17
17
17
17
17
17
17
17
17
17
17
17
17
17
17
17
17
17
17
17
17
17
17
17
17
17
17
17
17
17
17
17
17
17
17
17
17
17
17
17
17
17
17
17
17
17
17
17
17
17
17
17
17
17
17
17
17
17
17
17
17
17
17
17
17
17
17
17
17
17
17
17
17
17
17
17
17
17
17
17
17
17
17
17
17
17
17
17
17
17
17
17
17
17
17
17
17
17
17
17
17
17
17
17
17
17
17
17
17
17
17
17
17
17
17
17
17
17
17
17
17
17
17
17
17
17
17
17
17
17
17
17
17
17
17
17
17
17
17
17
17
17
17
17
17
17
17
17
17
17
17
17
17
-1
-1
-1
-1
-1
-1
-1
-1
-1
-1
-1
-1
-1
-1
-1
-1
-1
-1
-1
-1
-1
-1
-1
-1
-1
-1
-1
-1
-1
-1
-1
-1
-1
-1
-1
-1
-1
-1
-1
-1
-1
-1
-1
-1
-1
-1
-1
-1
-1
-1
-1
-1
-1
-1
-1
-1
-1
-1
-1
-1
-1
-1
-1
-1
-1
-1
-1
-1
-1
-1
-1
-1
-1
-1
-1
-1
-1
-1
-1
-1
-1
-1
-1
-1
-1
-1
-1
-1
-1
-1
-1
-1
-1
-1
-1
-1
-1
-1
-1
-1
-1
-1
-1
-1
-1
-1
-1
-1
-1
-1
-1
-1
-1
-1
-1
-1
-1
-1
-1
-1
-1
-1
-1
-1
-1
-1
-1
-1
-1
-1
-1
-1
-1
-1
-1
-1
-1
-1
-1
-1
-1
-1
-1
-1
-1
-1
-1
-1
-1
-1
-1
-1
-1
-1
-1
-1
-1
-1
-1
-1
-1
-1
