<?xml version="1.0"?>
<VTKFile byte_order="LittleEndian" type="UnstructuredGrid" version="0.1">
<UnstructuredGrid>
<Piece NumberOfCells="1945" NumberOfPoints="2134">
<PointData>
<DataArray Name="Points" format="ascii" type="Float64">
0 0 0 0 0 0 0 0 0 0 0 0 0 0 0 0 0 0 0 0 0 0 0 0 0 0 0 0 0 0 0 0 0 0 0 0 0 0 0 0 0 0 0 0 0 0 0 0 0 0 0 0 0 0 0 0 0 0 0 0 0 0 0 0 0 0 0 0 0 0 0 0 0 0 0 0 0 0 0 0 0 0 0 0 0 0 0 0 0 0 0 0 0 0 0 0 0 0 0 0 0 0 0 0 0 0 0 0 0 0 0 0 0 0 0 0 0 0 0 0 0 0 0 0 0 0 0 0 0 0 0 0 0 0 0 0 0 0 0 0 0 0 0 0 0 0 0 0 0 0 0 0 0 0 0 0 0 0 0 0 0 0 0 0 0 0 0 0 0 0 0 0 0 0 0 0 0 0 0 0 0 0 0 0 0 0 0 0 0 0 0 0 0 0 0 0 0 0 0 0 0 0 0 0 0 0 0 0 0 0 0 0 0 0 0 0 0 0 0 0 0 0 0 0 0 0 0 0 0 0 0 0 0 0 0 0 0 0 0 0 0 0 0 0 0 0 0 0 0 0 0 0 0 0 0 0 0 0 0 0 0 0 0 0 0 0 0 0 0 0 0 0 0 0 0 0 0 0 0 0 0 0 0 0 0 0 0 0 0 0 0 0 0 0 0 0 0 0 0 0 0 0 0 0 0 0 0 0 0 0 0 0 0 0 0 0 0 0 0 0 0 0 0 0 0 0 0 0 0 0 0 0 0 0 0 0 0 0 0 0 0 0 0 0 0 0 0 0 0 0 0 0 0 0 0 0 0 0 0 0 0 0 0 0 0 0 0 0 0 0 0 0 0 0 0 0 0 0 0 0 0 0 0 0 0 0 0 0 0 0 0 0 0 0 0 0 0 0 0 0 0 0 0 0 0 0 0 0 0 0 0 0 0 0 0 0 0 0 0 0 0 0 0 0 0 0 0 0 0 0 0 0 0 0 0 0 0 0 0 0 0 0 0 0 0 0 0 0 0 0 0 0 0 0 0 0 0 0 0 0 0 0 0 0 0 0 0 0 0 0 0 0 0 0 0 0 0 0 0 0 0 0 0 0 0 0 0 0 0 0 0 0 0 0 0 0 0 0 0 0 0 0 0 0 0 0 0 0 0 0 0 0 0 0 0 0 0 0 0 0 0 0 0 0 0 0 0 0 0 0 0 0 0 0 0 0 0 0 0 0 0 0 0 0 0 0 0 0 0 0 0 0 0 0 0 0 0 0 0 0 0 0 0 0 0 0 0 0 0 0 0 0 0 0 0 0 0 0 0 0 0 0 0 0 0 0 0 0 0 0 0 0 0 0 0 0 0 0 0 0 0 0 0 0 0 0 0 0 0 0 0 0 0 0 0 0 0 0 0 0 0 0 0 0 0 0 0 0 0 0 0 0 0 0 0 0 0 0 0 0 0 0 0 0 0 0 0 0 0 0 0 0 0 0 0 0 0 0 0 0 0 0 0 0 0 0 0 0 0 0 0 0 0 0 0 0 0 0 0 0 0 0 0 0 0 0 0 0 0 0 0 0 0 0 0 0 0 0 0 0 0 0 0 0 0 0 0 0 0 0 0 0 0 0 0 0 0 0 0 0 0 0 0 0 0 0 0 0 0 0 0 0 0 0 0 0 0 0 0 0 0 0 0 0 0 0 0 0 0 0 0 0 0 0 0 0 0 0 0 0 0 0 0 0 0 0 0 0 0 0 0 0 0 0 0 0 0 0 0 0 0 0 0 0 0 0 0 0 0 0 0 0 0 0 0 0 0 0 0 0 0 0 0 0 0 0 0 0 0 0 0 0 0 0 0 0 0 0 0 0 0 0 0 0 0 0 0 0 0 0 0 0 0 0 0 0 0 0 0 0 0 0 0 0 0 0 0 0 0 0 0 0 0 0 0 0 0 0 0 0 0 0 0 0 0 0 0 0 0 0 0 0 0 0 0 0 0 0 0 0 0 0 0 0 0 0 0 0 0 0 0 0 0 0 0 0 0 0 0 0 0 0 0 0 0 0 0 0 0 0 0 0 0 0 0 0 0 0 0 0 0 0 0 0 0 0 0 0 0 0 0 0 0 0 0 0 0 0 0 0 0 0 0 0 0 0 0 0 0 0 0 0 0 0 0 0 0 0 0 0 0 0 0 0 0 0 0 0 0 0 0 0 0 0 0 0 0 0 0 0 0 0 0 0 0 0 0 0 0 0 0 0 0 0 0 0 0 0 0 0 0 0 0 0 0 0 0 0 0 0 0 0 0 0 0 0 0 0 0 0 0 0 0 0 0 0 0 0 0 0 0 0 0 0 0 0 0 0 0 0 0 0 0 0 0 0 0 0 0 0 0 0 0 0 0 0 0 0 0 0 0 0 0 0 0 0 0 0 0 0 0 0 0 0 0 0 0 0 0 0 0 0 0 0 0 0 0 0 0 0 0 0 0 0 0 0 0 0 0 0 0 0 0 0 0 0 0 0 0 0 0 0 0 0 0 0 0 0 0 0 0 0 0 0 0 0 0 0 0 0 0 0 0 0 0 0 0 0 0 0 0 0 0 0 0 0 0 0 0 0 0 0 0 0 0 0 0 0 0 0 0 0 0 0 0 0 0 0 0 0 0 0 0 0 0 0 0 0 0 0 0 0 0 0 0 0 0 0 0 0 0 0 0 0 0 0 0 0 0 0 0 0 0 0 0 0 0 0 0 0 0 0 0 0 0 0 0 0 0 0 0 0 0 0 0 0 0 0 0 0 0 0 0 0 0 0 0 0 0 0 0 0 0 0 0 0 0 0 0 0 0 0 0 0 0 0 0 0 0 0 0 0 0 0 0 0 0 0 0 0 0 0 0 0 0 0 0 0 0 0 0 0 0 0 0 0 0 0 0 0 0 0 0 0 0 0 0 0 0 0 0 0 0 0 0 0 0 0 0 0 0 0 0 0 0 0 0 0 0 0 0 0 0 0 0 0 0 0 0 0 0 0 0 0 0 0 0 0 0 0 0 0 0 0 0 0 0 0 0 0 0 0 0 0 0 0 0 0 0 0 0 0 0 0 0 0 0 0 0 0 0 0 0 0 0 0 0 0 0 0 0 0 0 0 0 0 0 0 0 0 0 0 0 0 0 0 0 0 0 0 0 0 0 0 0 0 0 0 0 0 0 0 0 0 0 0 0 0 0 0 0 0 0 0 0 0 0 0 0 0 0 0 0 0 0 0 0 0 0 0 0 0 0 0 0 0 0 0 0 0 0 0 0 0 0 0 0 0 0 0 0 0 0 0 0 0 0 0 0 0 0 0 0 0 0 0 0 0 0 0 0 0 0 0 0 0 0 0 0 0 0 0 0 0 0 0 0 0 0 0 0 0 0 0 0 0 0 0 0 0 0 0 0 0 0 0 0 0 0 0 0 0 0 0 0 0 0 0 0 0 0 0 0 0 0 0 0 0 0 0 0 0 0 0 0 0 0 0 0 0 0 0 0 0 0 0 0 0 0 0 0 0 0 0 0 0 0 0 0 0 0 0 0 0 0 0 0 0 0 0 0 0 0 0 0 0 0 0 0 0 0 0 0 0 0 0 0 0 0 0 0 0 0 0 0 0 0 0 0 0 0 0 0 0 0 0 0 0 0 0 0 0 0 0 0 0 0 0 0 0 0 0 0 0 0 0 0 0 0 0 0 0 0 0 0 0 0 0 0 0 0 0 0 0 0 0 0 0 0 0 0 0 0 0 0 0 0 0 0 0 0 0 0 0 0 0 0 0 0 0 0 0 0 0 0 0 0 0 0 0 0 0 0 0 0 0 0 0 0 0 0 0 0 0 0 0 0 0 0 0 0 0 0 0 0 0 0 0 0 0 0 0 0 0 0 0 0 0 0 0 0 0 0 0 0 0 0 0 0 0 0 0 0 0 0 0 0 0 0 0 0 0 0 0 0 0 0 0 0 0 0 0 0 0 0 0 0 0 0 0 0 0 0 0 0 0 0 0 0 0 0 0 0 0 0 0 0 0 0 0 0 0 0 0 0 0 0 0 0 0 0 0 0 0 0 0 0 0 0 0 0 0 0 0 0 0 0 0 0 0 0 0 0 0 0 0 0 0 0 0 0 0 0 0 0 0 0 0 0 0 0 0 0 0 0 0 0 0 0 0 0 0 0 0 0 0 0 0 0 0 0 0 0 0 0 0 0 0 0 0 0 0 0 0 0 0 0 0 0 0 0 0 0 0 0 0 0 0 0 0 0 0 0 0 0 0 0 0 0 0 0 0 0 0 0 0 0 0 0 0 0 0 0 0 0 0 0 0 0 0 0 0 0 0 0 0 0 0 0 0 0 0 0 0 0 0 0 0 0 0 0 0 0 0 0 0 0 0 0 0 0 0 0 0 0 0 0 0 0 0 0 0 0 0 0 0 0 0 0 0 0 0 0 0 0 0 0 0 0 0 0 0 0 0 0 0 0 0 0 0 0 0 0 0 0 0 0 0 0 0 0 0 0 0 0 0 0 0 0 0 0 0 0 0 0 0 0 0 0 0 0 0 0 0 0 0 0 0 0 0 0 0 0 0 0 0 0 0 0 0 0 0 0 0 0 0 0 0 0 0 0 0 0 0 0 0 0 0 0 0 0 0 0 0 0 0 0 0 0 0 0 0 0 0 0 0 0 0 0 0 0 0 0 0 0 0 0 0 0 0 0 0 0 0 0 0 0 0 0 0 0 0 0 0 0 0 0 0 0 0 0 0 0 0 0 0 0 0 0 0 0 0 0 0 0 0 0 0 0 0 0 0 0 0 
</DataArray>
</PointData>
<CellData>
<DataArray Name="Temperature" format="ascii" type="Float64">
303.324 303.287 306.797 303.195 306.622 303.118 306.424 303.114 306.342 303.2 306.412 303.423 306.719 303.832 307.308 304.589 308.383 305.971 310.277 307.756 313.642 307.413 306.689 305.523 312.364 304.694 310.399 303.978 308.632 303.789 307.731 303.793 307.755 303.851 307.733 304.084 307.991 304.592 308.613 305.669 309.999 307.181 312.801 306.925 305.73 304.486 310.108 303.745 308.235 303.3 307.108 303.049 306.46 302.917 306.094 302.843 305.953 302.939 305.794 303.703 306.574 305.106 308.667 306.843 312.037 306.715 306.087 304.965 311.055 304.232 309.229 303.758 308.083 303.444 307.301 303.285 306.84 303.272 306.643 303.462 306.793 303.943 307.366 304.957 308.699 306.189 311.207 305.812 305.114 304.224 309.306 303.681 307.913 303.386 307.11 303.287 306.748 303.338 306.695 303.558 306.968 303.959 307.54 304.678 308.589 305.946 310.395 307.667 313.63 307.273 305.782 304.236 310.005 303.295 307.418 303.019 306.303 302.936 306.122 302.914 305.983 303.011 306.028 303.308 306.388 303.926 307.2 305.144 308.864 306.726 311.941 306.513 305.715 304.569 310.237 303.851 308.453 303.386 307.32 303.079 306.599 302.814 306.076 302.704 305.564 303.106 305.813 303.868 307.031 305.094 308.767 306.671 311.817 306.389 305.647 304.553 310.146 303.89 308.445 303.514 307.482 303.308 306.92 303.249 306.674 303.312 306.657 303.548 306.934 304.026 307.571 304.905 308.852 305.9 310.809 305.721 305.266 304.171 309.373 303.506 307.677 303.124 306.677 302.944 306.15 302.912 305.933 303.046 306.037 303.374 306.453 304.041 307.369 305.276 309.079 306.913 312.219 306.656 305.72 304.387 310.18 303.522 307.825 303.264 306.782 303.166 306.603 303.114 306.401 303.187 306.384 303.478 306.709 304.116 307.527 305.406 309.263 307.14 312.547 307.003 306.428 305.408 311.795 304.776 310.219 304.325 309.186 303.887 308.425 303.44 306.763 307.446 839.676 836.653 834.654 833.284 832.345 831.928 832.748 833.188 769.585 832.539 831.074 830.408 830.116 830.408 831.264 832.928 833.495 770.037 832.66 830.942 830.238 830.193 830.665 831.322 832.515 832.637 769.294 831.403 829.298 828.046 827.128 826.703 826.988 828.732 830.119 762.435 830.513 829.847 829.653 829.683 830.25 831.296 833.032 833.575 770.526 832.635 830.862 830.278 830.458 831.173 832.057 833.507 833.951 771.431 833.104 831.389 830.452 829.739 829.337 829.42 830.723 831.528 766.058 831.316 830.304 830.248 830.964 833.052 837.103 840.201 781.613 785.264 315.361 313.274 313.802 311.418 313.665 313.078 312.9 312.019 313.231 314.336 773.588 778.553 770.506 768.082 766.553 766.486 765.733 763.917 763.081 763.028 764.113 766.133 765.194 763.085 762.548 763.049 764.34 765.983 763.099 759.99 757.801 756.208 755.872 757.398 762.075 761.64 761.75 762.381 764.002 766.411 765.531 763.432 763.128 763.978 765.622 767.645 766.776 764.408 762.822 761.596 761.199 762.12 763.482 762.714 763.428 765.958 771.903 769.453 769.587 768.166 764.142 770.023 771.001 766.504 315.436 315.137 319.654 315.064 319.409 315.331 319.523 316.098 320.217 317.436 321.57 319.534 323.783 322.46 326.93 325.648 330.986 323.119 323.834 321.936 327.939 320.224 326.937 318.888 325.032 318.382 323.902 318.294 323.513 318.694 323.721 319.591 324.451 321.21 325.877 323.405 329.978 328.161 321.214 328.605 324.852 318.649 325.207 316.858 322.592 315.795 320.952 315.253 320.037 315.166 319.758 315.525 319.946 316.97 321.124 319.678 323.664 323.09 330.749 327.461 322.828 330.332 321.546 320.536 327.386 318.859 325.051 317.648 323.436 316.846 322.205 316.518 321.555 316.707 321.421 317.591 322.069 319.29 323.569 321.341 327.302 326.1 319.8 326.306 324.324 317.924 323.861 316.662 321.96 316.102 320.927 316.114 320.657 316.677 321.103 317.679 322.081 319.274 323.631 321.649 325.955 324.387 330.809 329.35 320.97 328.795 323.828 317.75 324.564 315.939 321.484 315.267 320.108 315.083 319.65 315.3 319.747 315.978 320.263 317.393 321.537 319.775 323.806 322.752 329.717 327.382 321.653 329.002 323.423 319.27 325.951 317.485 323.455 316.263 321.731 315.406 320.511 314.991 319.77 315.474 319.806 317.104 321.142 319.58 323.603 322.464 329.242 327.1 321.319 328.43 322.486 319.143 325.573 317.691 323.431 316.841 322.18 316.427 321.451 316.42 321.256 316.815 321.434 317.806 322.252 319.56 323.871 321.63 328.297 326.512 320.228 327.367 323.609 317.733 324.068 315.982 321.45 315.012 319.846 314.659 319.072 314.919 319.084 315.753 319.782 317.345 321.291 319.831 323.769 322.776 329.469 327.353 321.12 328.45 325.243 318.45 325.099 316.873 322.561 316.175 321.303 315.819 320.656 315.882 320.5 316.491 320.872 317.92 322.122 320.411 324.474 323.639 330.957 328.264 323.454 330.757 687.365 321.334 328.066 319.634 325.756 318.426 323.965 694.943 679.592 674.306 682.465 676.675 679.878 668.915 670.957 674.132 682.559 674.81 683.058 675.774 675.852 674.725 326.447 331.023 332.858 683.259 315.713 320.054 680.325 678.32 677.867 676.566 682.586 639.163 672.862 672.933 675.063 678.601 679.219 677.544 633.989 675.726 676.398 677.78 678.925 672.584 674.203 627.041 666.242 664.507 664.224 666.183 674.447 681.687 638.435 673.541 673.989 676.174 679.386 677.471 682.058 638.447 674.537 676.292 678.75 680.938 678.416 676.979 631.355 673.833 672.41 671.81 672.777 675.523 674.99 677.696 685.689 679.26 634.451 659.471 637.299 646.725 632.795 648.64 641.192 322.912 317.46 316.05 320.328 321.099 635.217 630.515 633.257 630.138 628.579 626.447 626.407 629.938 631.599 636.539 632.035 637.946 635.866 633.029 635.793 633.692 630.74 635.061 637.026 633.264 629.901 635.299 629.747 624.43 621.832 618.019 617.165 629.744 634.376 632.92 629.635 631.911 628.099 637.397 632.781 629.632 629.674 629.123 629.12 621.067 631.749 698.266 634.385 627.726 626.679 631.585 704.806 618.487 628.529 630.206 627.71 575.938 330.382 330.602 335.77 331.657 336.532 333.579 338.294 336.404 341.124 339.716 344.619 342.597 348.006 340.019 338.322 345.814 336.974 344.035 336.358 342.869 336.469 342.638 336.991 342.955 337.576 343.451 336.433 341.095 334.186 340.859 332.754 339.067 332.12 338.141 332.205 338.11 332.844 338.661 334.368 340.022 336.404 342.028 339.195 345.915 336.775 337.711 344.45 336.355 343.304 335.165 342.112 334.414 341.015 334.194 340.542 334.499 340.419 335.499 340.977 334.912 341.279 338.952 333.215 339.44 332.284 338.066 332.283 337.755 333.054 338.35 334.303 339.683 335.673 340.99 337.325 342.307 335.741 342.927 339.8 333.298 340.008 332.049 338.226 331.818 337.739 332.128 337.96 332.773 338.592 333.913 339.378 335.883 340.928 337.843 344.734 338.797 335.864 342.815 334.337 341.128 333.258 339.984 332.701 339.172 332.88 339.083 333.919 339.628 335.824 341.083 337.015 343.464 338.429 335.534 341.97 334.626 340.987 334.133 340.548 333.984 340.269 334.127 340.321 334.589 340.392 335.757 341.041 335.522 342.707 338.454 573.155 332.853 339.667 331.09 337.267 330.333 336.029 330.485 335.782 331.432 336.554 333.011 337.913 335.299 339.977 336.433 342.971 340.842 579.082 334.855 341.406 333.721 340.284 332.993 339.381 332.798 338.812 333.246 339.011 334.372 339.738 336.434 341.36 339.006 345.507 336.99 343.533 335.018 341.414 570.895 556.89 560.275 577.059 562.208 573.241 569.973 570.452 574.236 576.121 570.86 570.161 577.214 565.3 568.349 569.736 567.192 559.596 573 653.924 331.298 566.244 569.236 579.79 579.179 572.954 578.265 566.137 571.215 571.427 564.753 566.708 574.136 570.848 565.554 568.483 569.782 556.289 574.907 577.769 340.1 347.305 570.182 574.493 569.533 570.838 576.354 338.8 343.17 567.11 573.558 573.47 575.108 569.788 330.712 335.883 336.525 568.57 565.544 576.287 568.57 583.452 572.161 571.174 569.329 571.889 589.092 557.655 585.23 348.956 343.079 343.101 337.953 537.868 540.353 541.258 339.665 344.531 344.347 539.6 339.439 333.39 536.882 540.127 343.523 338.405 341.377 347.098 346.132 543.89 342.576 337.531 544.71 336.785 342.579 341.889 345.079 340.331 540.621 339.436 345.525 343.959 345.585 339.947 338.302 344.865 343.01 344.407 339.182 543.756 337.947 344.166 342.852 345.069 339.532 540.557 337.805 344.679 342.662 344.011 338.994 543.486 337.747 343.885 342.272 346.214 340.754 549.631 339.014 345.53 343.594 341.359 538.787 524.848 331.551 337.111 544.459 540.689 537.865 537.21 543.011 544.702 532.564 533.251 537.585 539.383 536.758 546.918 543.625 549.172 547.763 537.955 533.7 542.721 527.442 537.379 538.538 534.645 546.23 526.631 539.121 540.121 546.47 544.907 542.233 538.343 537.554 529.289 547.792 531.532 533.942 546.187 540.674 546.036 536.158 541.916 548.096 525.777 541.311 535.456 553.433 538.36 540.012 553.108 349.055 351.217 356.248 354.462 359.385 358.134 363.392 360.485 366.407 357.889 356.676 363.976 356.399 363.276 356.455 363.261 356.364 363.255 494.98 351.605 351.612 357.83 352.657 359.026 353.657 360.505 355.297 362.064 357.233 364.167 356.19 503.18 357.443 356.55 364.264 355.687 363.351 355.302 362.776 354.574 362.217 354.071 360.98 352.211 495.984 349.978 350.111 355.774 351.344 356.886 353.219 359.009 354.209 360.777 354.208 360.593 352.79 351.108 351.445 357.62 352.664 359.189 353.402 360.604 353.547 360.787 354.084 360.503 356.088 499.494 355.175 354.643 362.037 354.436 362.032 354.667 362.248 354.616 362.351 354.795 361.813 354.034 499.184 354.459 354.726 361.56 354.971 362.202 355.154 362.565 354.524 362.185 353.919 360.708 354.325 499.971 349.487 348.475 354.791 348.594 354.598 349.722 355.524 350.88 356.903 352.252 357.895 352.846 503.075 349.494 354.163 353.313 360.756 352.82 359.87 353.119 359.895 353.322 360.165 353.999 360.046 354.998 354.317 359.721 493.911 331.796 336.973 337.442 352.632 359.17 497.895 489.18 498.665 499.94 498.635 503.884 502.93 497.281 496.741 486.133 353.814 360.895 358.559 502.474 351.555 356.319 358.592 505.845 495.766 353.858 360.381 359.281 502.058 355.43 361.868 361.642 497.261 351.801 357.408 357.378 498.06 486.039 350.854 356.052 357 357.078 364.202 361.99 498.885 493.427 503.898 493.961 501.042 495.707 352.471 357.9 484.045 507.573 505.812 491.415 491.744 359.531 365.729 500.204 488.304 488.821 359.92 366.911 348.162 354.504 493.744 495.537 494.889 484.906 353.645 358.661 495.428 492.679 502.297 496.366 500.934 497.663 505.679 503.319 493.939 492.973 490.645 494.663 484.996 494.836 505.828 504.282 496.794 501.951 494.377 499.332 349.417 354.78 361.698 474.515 356.739 350.52 480.448 471.464 350.242 357.002 475.43 471.264 475.17 481.54 472.382 357.695 365.156 486.37 464.539 362.277 357.753 463.611 356.363 360.196 353.793 360.2 358.126 352.942 475.295 474.538 466.985 356.308 362.035 476.781 353.568 358.993 355.027 360.903 354.497 359.493 479.633 478.971 482.099 356.661 361.529 355.011 361.471 479.545 481.113 474.342 354.071 358.557 483.859 353.848 359.469 478.135 473.43 353.57 359.037 481.714 356.337 360.978 482.203 470.227 355.132 360.725 361.009 366.702 473.942 358.976 353.93 471.831 467.698 478.845 477.677 470.605 464.426 471.173 469.348 482.843 486.386 473.67 480.346 471.602 464.558 474.136 474.171 473.88 478.75 484.66 480.375 477.112 479.076 482.973 476.794 475.196 476.378 473.414 464.864 472.252 468.414 462.879 472.109 482.05 476.919 470.551 348.313 354.171 354.913 361.188 367.727 367.183 442.033 372.389 377.987 382.194 380.149 387.745 353.291 358.086 358.821 377.884 376.74 384.458 377.538 384.458 356.969 362.826 363.28 455.083 374.893 377.674 385.024 381.679 439.958 435.595 378.073 379.386 386.159 378.526 388.006 374.739 383.85 369.277 373.706 378.024 375.816 383.302 437.181 354.918 360.772 360.255 375.25 377.914 385.774 377.267 386.751 374.268 382.95 445.506 445.818 450.973 377.874 380.359 387.551 380.079 389.966 376.632 386.25 447.451 445.134 377.323 379.751 386.728 378.821 388.667 374.671 383.982 443.589 449.102 367.282 370.05 375.153 371.497 378.533 370.513 377.754 453.108 442.943 452.569 373.802 375.598 381.68 375.508 384.165 372.843 380.776 451.141 369.906 440.329 449.97 366.929 445.389 371.099 376.995 376.165 381.891 368.154 373.843 439.805 441.799 377.04 385.231 354.782 361.307 358.668 453.537 352.47 357.634 358.306 446.321 378.301 386.342 449.142 435.431 445.558 439.823 356.614 363.161 361.09 370.747 379.929 447.134 441.706 443.337 434.748 368.524 374.76 442.453 380.051 386.826 447.674 443.404 449.078 435.561 447.53 370.547 434.297 442.233 452.732 379.999 435.691 380.24 387.854 445.601 432.653 441.724 369.14 375.47 370.706 379.534 376.607 435.26 353.963 359.064 359.69 438.687 444.655 455.845 446.923 353.294 358.515 358.518 437.644 438.834 443.538 449.442 377.154 384.076 385.321 439.239 370.03 377.641 374.596 438.683 438.499 443.04 441.13 355.049 360.568 360.211 442.228 451.175 456.997 452.208 448.175 383.493 374.427 430.292 385.029 377.901 356.274 349.25 439.161 440.357 369.026 375.116 428.132 423.526 436.452 381.805 391.56 426.201 421.028 441.877 377.98 425.24 429.203 424.287 436.264 378.881 387.821 430.835 368.408 429.966 438.688 374.713 369.525 431.513 416.932 371.146 374.647 381.305 430.31 422.374 423.741 373.642 428.881 371.056 424.342 419.76 368.812 379.585 434.036 436.827 376.658 370.421 375.824 383.812 372.681 433.663 377.223 370.856 432.805 376.208 367.758 420.047 420.047 373.21 381.07 428.673 428.476 425.296 421.145 416.683 371.851 377.76 430.771 423.725 440.688 430.435 437.007 373.568 379.555 431.56 373.428 367.206 436.475 422.95 423 428.646 427.996 433.078 417.393 382.901 373.7 425.24 371.903 426.024 437.891 427.529 368.57 373.478 373.737 369.412 377.065 373.033 370.116 435.05 372.563 425.385 347.525 353.194 353.691 430.041 432.23 431.65 385.095 376.25 375.678 384.661 380.028 422.531 368.085 374.034 375.408 428.969 372.914 380.56 377.793 368.536 375.833 425.772 373.769 383.223 368.972 422.998 421.289 421.803 373.422 370.354 367.703 373.385 373.818 388.325 386.067 382.025 406.145 404.057 400.404 400.116 412.129 402.701 397.493 405.65 403.125 396.656 405.831 379.121 376.119 373.992 374.779 368.518 408.825 381.265 406.513 407.238 412.756 399.487 409.752 402.873 385.099 404.431 374.926 369.447 393.948 409.546 405.49 397.076 404.684 380.719 376.164 411.046 410.868 410.195 404.274 399.974 406.905 407.754 403.519 394.194 378.119 409.866 401.557 411.314 400.47 399.123 402.698 410.612 410.464 413.919 407.468 401.094 378.911 371.829 406 398.571 402.999 405.051 403.532 406.803 405.458 421.058 413.262 408.621 416.5 406.002 418.606 411.657 397.385 407.208 404.438 384.094 379.325 402.234 403.808 416.599 415.923 402.788 415.873 400.66 394.07 400.257 403.626 404.148 400.36 381.815 418.895 402.884 411.248 418.747 396.154 408.649 401.487 406.79 400.776 378.836 414.991 401.005 403.44 398.627 400.645 398.845 398.12 411.661 401.263 391.381 417.656 393.483 399.801 396.636 368.786 377.781 395.046 374.562 390.115 392.709 394.316 390.651 410.453 410.124 393.48 378.747 396.722 400.171 385.733 391.737 397.705 391.477 389.527 388.772 391.534 397.079 387.983 405.067 396.8 387.725 388.006 396 421.618 397.215 397.053 386.526 397.941 410.707 395.203 395.286 379.239 387.69 384.112 380.533 390.932 378.945 388.416 386.887 390.514 388.87 404.366 394.678 370.194 377.445 398.392 395.698 387.72 389.284 393.623 385.154 373.865 390.135 386.56 395.429 374.147 396.289 386.745 399.302 392.946 393.544 390.14 397.092 388.691 388.721 400.515 391.51 387.146 392.926 382.482 368.834 393.368 388.176 364.461 373.146 368.666 390.523 370.546 380.097 388.65 386.631 385.645 367.128 376.735 380.163 373.576 383.387 371.347 369.623 369.935 364.433 372.056 371.195 372.451 
</DataArray>
</CellData>
<Points>
<DataArray NumberOfComponents="3" format="ascii" type="Float64">