<?xml version="1.0"?>
<VTKFile byte_order="LittleEndian" type="UnstructuredGrid" version="0.1">
<UnstructuredGrid>
<Piece NumberOfCells="400" NumberOfPoints="882">
<PointData>
<DataArray Name="Temperature" format="ascii" type="Float64">
0 0 0 0 0 0 0 0 0 0 0 0 0 0 0 0 0 0 0 0 0 0 0 0 0 0 0 0 0 0 0 0 0 0 0 0 0 0 0 0 0 0 0 0 0 0 0 0 0 0 0 0 0 0 0 0 0 0 0 0 0 0 0 0 0 0 0 0 0 0 0 0 0 0 0 0 0 0 0 0 0 0 0 0 0 0 0 0 0 0 0 0 0 0 0 0 0 0 0 0 0 0 0 0 0 0 0 0 0 0 0 0 0 0 0 0 0 0 0 0 0 0 0 0 0 0 0 0 0 0 0 0 0 0 0 0 0 0 0 0 0 0 0 0 0 0 0 0 0 0 0 0 0 0 0 0 0 0 0 0 0 0 0 0 0 0 0 0 0 0 0 0 0 0 0 0 0 0 0 0 0 0 0 0 0 0 0 0 0 0 0 0 0 0 0 0 0 0 0 0 0 0 0 0 0 0 0 0 0 0 0 0 0 0 0 0 0 0 0 0 0 0 0 0 0 0 0 0 0 0 0 0 0 0 0 0 0 0 0 0 0 0 0 0 0 0 0 0 0 0 0 0 0 0 0 0 0 0 0 0 0 0 0 0 0 0 0 0 0 0 0 0 0 0 0 0 0 0 0 0 0 0 0 0 0 0 0 0 0 0 0 0 0 0 0 0 0 0 0 0 0 0 0 0 0 0 0 0 0 0 0 0 0 0 0 0 0 0 0 0 0 0 0 0 0 0 0 0 0 0 0 0 0 0 0 0 0 0 0 0 0 0 0 0 0 0 0 0 0 0 0 0 0 0 0 0 0 0 0 0 0 0 0 0 0 0 0 0 0 0 0 0 0 0 0 0 0 0 0 0 0 0 0 0 0 0 0 0 0 0 0 0 0 0 0 0 0 0 0 0 0 0 0 0 0 0 0 0 0 0 0 0 0 0 0 0 0 0 0 0 0 0 0 0 0 0 0 0 0 0 0 0 0 0 0 0 0 0 0 0 0 0 0 0 0 0 0 0 0 0 0 0 0 0 0 0 0 0 0 0 0 0 0 0 0 0 0 0 0 0 0 0 0 0 0 0 0 0 0 0 0 0 0 0 0 0 0 0 0 0 0 0 0 0 0 0 0 0 0 0 0 0 0 0 0 0 0 0 0 0 0 0 0 0 0 0 0 0 0 0 0 0 0 0 0 0 0 0 0 0 0 0 0 0 0 0 0 0 0 0 0 0 0 0 0 0 0 0 0 0 0 0 0 0 0 0 0 0 0 0 0 0 0 0 0 0 0 0 0 0 0 0 0 0 0 0 0 0 0 0 0 0 0 0 0 0 0 0 0 0 0 0 0 0 0 0 0 0 0 0 0 0 0 0 0 0 0 0 0 0 0 0 0 0 0 0 0 0 0 0 0 0 0 0 0 0 0 0 0 0 0 0 0 0 0 0 0 0 0 0 0 0 0 0 0 0 0 0 0 0 0 0 0 0 0 0 0 0 0 0 0 0 0 0 0 0 0 0 0 0 0 0 0 0 0 0 0 0 0 0 0 0 0 0 0 0 0 0 0 0 0 0 0 0 0 0 0 0 0 0 0 0 0 0 0 0 0 0 0 0 0 0 0 0 0 0 0 0 0 0 0 0 0 0 0 0 0 0 0 0 0 0 0 0 0 0 0 0 0 0 0 0 0 0 0 0 0 0 0 0 0 0 0 0 0 0 0 0 0 0 0 0 0 0 0 0 0 0 0 0 0 0 0 0 0 0 0 0 0 0 0 0 0 0 0 0 0 0 0 0 0 0 0 0 0 0 0 0 0 0 0 0 0 0 0 0 0 0 0 0 0 0 0 0 0 0 0 0 0 0 0 0 0 0 0 0 0 0 0 0 0 0 0 0 0 0 0 0 0 0 0 0 0 0 0 0 0 0 0 0 0 0 0 0 0 0 0 0 0 0 0 0 0 0 0 0 0 0 0 0 0 0 0 0 0 0 0 0 0 0 0 0 
</DataArray>
</PointData>
<CellData>
<DataArray Name="Conductivity" format="ascii" type="Float64">
300 300 300 300 300 300 300 300 300 300 300 300 300 300 300 300 300 300 300 300 300 300 300 300 300 300 300 300 300 300 300 300 300 300 300 300 300 300 300 300 300 300 300 300 300 300 300 300 300 300 300 300 300 300 300 300 300 300 300 300 300 300 300 300 300 300 300 300 300 300 300 300 300 300 300 300 300 300 300 300 300 300 300 300 300 300 300 300 300 300 300 300 300 300 300 300 300 300 300 300 300 300 300 300 300 300 300 300 300 300 300 300 300 300 300 300 300 300 300 300 300 300 300 300 300 300 300 300 300 300 300 300 300 300 300 300 300 300 300 300 300 300 300 300 300 300 300 300 300 300 300 300 300 300 300 300 300 300 300 300 300 300 300 300 300 300 300 300 300 300 300 300 300 300 300 300 300 300 300 300 300 300 300 300 300 300 300 300 300 300 300 300 300 300 300 300 300 300 300 300 300 300 300 300 300 300 300 300 300 300 300 300 300 300 300 300 300 300 300 300 300 300 300 300 300 300 300 300 300 300 300 300 300 300 300 300 300 300 300 300 300 300 300 300 300 300 300 300 300 300 300 300 300 300 300 300 300 300 300 300 300 300 300 300 300 300 300 300 300 300 300 300 300 300 300 300 300 300 300 300 300 300 300 300 300 300 300 300 300 300 300 300 300 300 300 300 300 300 300 300 300 300 300 300 300 300 300 300 300 300 300 300 300 300 300 300 300 300 300 300 300 300 300 300 300 300 300 300 300 300 300 300 300 300 300 300 300 300 300 300 300 300 300 300 300 300 300 300 300 300 300 300 300 300 300 300 300 300 300 300 300 300 300 300 300 300 300 300 300 300 300 300 300 300 300 300 300 300 300 300 300 300 300 300 300 300 300 300 300 300 300 300 300 300 300 300 300 300 300 300 
</DataArray>
</CellData>
<Points>
<DataArray NumberOfComponents="3" format="ascii" type="Float64">
0.5 0.5 0 0.5 -0.5 0 -0.5 0.5 0 -0.5 -0.5 0 -0.5 -0.45 0 -0.5 -0.4 0 -0.5 -0.35 0 -0.5 -0.3 0 -0.5 -0.25 0 -0.5 -0.2 0 -0.5 -0.15 0 -0.5 -0.1 0 -0.5 -0.05 0 -0.5 0 0 -0.5 0.05 0 -0.5 0.1 0 -0.5 0.15 0 -0.5 0.2 0 -0.5 0.25 0 -0.5 0.3 0 -0.5 0.35 0 -0.5 0.4 0 -0.5 0.45 0 -0.45 -0.5 0 -0.4 -0.5 0 -0.35 -0.5 0 -0.3 -0.5 0 -0.25 -0.5 0 -0.2 -0.5 0 -0.15 -0.5 0 -0.1 -0.5 0 -0.05 -0.5 0 0 -0.5 0 0.05 -0.5 0 0.1 -0.5 0 0.15 -0.5 0 0.2 -0.5 0 0.25 -0.5 0 0.3 -0.5 0 0.35 -0.5 0 0.4 -0.5 0 0.45 -0.5 0 0.5 -0.45 0 0.5 -0.4 0 0.5 -0.35 0 0.5 -0.3 0 0.5 -0.25 0 0.5 -0.2 0 0.5 -0.15 0 0.5 -0.1 0 0.5 -0.05 0 0.5 0 0 0.5 0.05 0 0.5 0.1 0 0.5 0.15 0 0.5 0.2 0 0.5 0.25 0 0.5 0.3 0 0.5 0.35 0 0.5 0.4 0 0.5 0.45 0 -0.45 0.5 0 -0.4 0.5 0 -0.35 0.5 0 -0.3 0.5 0 -0.25 0.5 0 -0.2 0.5 0 -0.15 0.5 0 -0.1 0.5 0 -0.05 0.5 0 0 0.5 0 0.05 0.5 0 0.1 0.5 0 0.15 0.5 0 0.2 0.5 0 0.25 0.5 0 0.3 0.5 0 0.35 0.5 0 0.4 0.5 0 0.45 0.5 0 -0.45 -0.45 0 -0.45 -0.4 0 -0.45 -0.35 0 -0.45 -0.3 0 -0.45 -0.25 0 -0.45 -0.2 0 -0.45 -0.15 0 -0.45 -0.1 0 -0.45 -0.05 0 -0.45 -4.31619e-18 0 -0.45 0.05 0 -0.45 0.1 0 -0.45 0.15 0 -0.45 0.2 0 -0.45 0.25 0 -0.45 0.3 0 -0.45 0.35 0 -0.45 0.4 0 -0.45 0.45 0 -0.4 -0.45 0 -0.35 -0.45 0 -0.3 -0.45 0 -0.25 -0.45 0 -0.2 -0.45 0 -0.15 -0.45 0 -0.1 -0.45 0 -0.05 -0.45 0 -1.37513e-17 -0.45 0 0.05 -0.45 0 0.1 -0.45 0 0.15 -0.45 0 0.2 -0.45 0 0.25 -0.45 0 0.3 -0.45 0 0.35 -0.45 0 0.4 -0.45 0 0.45 -0.45 0 0.45 -0.4 0 0.45 -0.35 0 0.45 -0.3 0 0.45 -0.25 0 0.45 -0.2 0 0.45 -0.15 0 0.45 -0.1 0 0.45 -0.05 0 0.45 1.07109e-17 0 0.45 0.05 0 0.45 0.1 0 0.45 0.15 0 0.45 0.2 0 0.45 0.25 0 0.45 0.3 0 0.45 0.35 0 0.45 0.4 0 0.45 0.45 0 -0.4 0.45 0 -0.35 0.45 0 -0.3 0.45 0 -0.25 0.45 0 -0.2 0.45 0 -0.15 0.45 0 -0.1 0.45 0 -0.05 0.45 0 8.63249e-18 0.45 0 0.05 0.45 0 0.1 0.45 0 0.15 0.45 0 0.2 0.45 0 0.25 0.45 0 0.3 0.45 0 0.35 0.45 0 0.4 0.45 0 -0.4 -0.4 0 -0.4 -0.35 0 -0.4 -0.3 0 -0.4 -0.25 0 -0.4 -0.2 0 -0.4 -0.15 0 -0.4 -0.1 0 -0.4 -0.05 0 -0.4 -1.29702e-17 0 -0.4 0.05 0 -0.4 0.1 0 -0.4 0.15 0 -0.4 0.2 0 -0.4 0.25 0 -0.4 0.3 0 -0.4 0.35 0 -0.4 0.4 0 0.4 0.4 0 -0.25 -0.4 0 -0.3 -0.4 0 -0.2 -0.4 0 -0.15 -0.4 0 -0.1 -0.4 0 -0.05 -0.4 0 -9.4166e-18 -0.4 0 0.05 -0.4 0 0.1 -0.4 0 0.15 -0.4 0 0.2 -0.4 0 0.25 -0.4 0 0.3 -0.4 0 0.35 -0.4 0 0.4 -0.4 0 0.4 -0.35 0 0.4 -0.3 0 0.4 -0.25 0 0.4 -0.2 0 0.4 -0.15 0 0.4 -0.1 0 0.4 -0.05 0 0.4 -3.04832e-18 0 0.4 0.05 0 0.4 0.1 0 0.4 0.15 0 0.4 0.2 0 0.4 0.25 0 0.4 0.3 0 0.4 0.35 0 -0.35 0.4 0 -0.3 0.4 0 -0.25 0.4 0 -0.2 0.4 0 -0.15 0.4 0 -0.1 0.4 0 -0.05 0.4 0 1.13078e-17 0.4 0 0.05 0.4 0 0.1 0.4 0 0.15 0.4 0 0.2 0.4 0 0.25 0.4 0 0.3 0.4 0 0.35 0.4 0 -0.35 -0.4 0 -0.35 -0.35 0 -0.35 -0.3 0 -0.35 -0.25 0 -0.35 -0.2 0 -0.35 -0.15 0 -0.35 -0.1 0 -0.35 -0.05 0 -0.35 -1.48001e-17 0 -0.35 0.05 0 -0.35 0.1 0 -0.35 0.15 0 -0.35 0.2 0 -0.35 0.25 0 -0.35 0.3 0 -0.35 0.35 0 -0.1 -0.35 0 -0.15 -0.35 0 -0.25 -0.35 0 -0.3 -0.35 0 -0.2 -0.35 0 -0.05 -0.35 0 1.19995e-17 -0.35 0 0.05 -0.35 0 0.1 -0.35 0 0.15 -0.35 0 0.2 -0.35 0 0.25 -0.35 0 0.3 -0.35 0 0.35 -0.35 0 0.35 -0.3 0 0.35 -0.2 0 0.35 -0.25 0 0.35 -0.15 0 0.35 -0.1 0 0.35 -0.05 0 0.35 1.33862e-17 0 0.35 0.05 0 0.35 0.1 0 0.35 0.15 0 0.35 0.2 0 0.35 0.25 0 0.35 0.3 0 0.35 0.35 0 -0.3 0.35 0 -0.25 0.35 0 -0.2 0.35 0 -0.15 0.35 0 -0.1 0.35 0 -0.05 0.35 0 1.5746e-17 0.35 0 0.05 0.35 0 0.1 0.35 0 0.15 0.35 0 0.2 0.35 0 0.25 0.35 0 0.3 0.35 0 -0.3 -0.3 0 -0.3 -0.25 0 -0.3 -0.2 0 -0.3 -0.15 0 -0.3 -0.1 0 -0.3 -0.05 0 -0.3 -2.62398e-17 0 -0.3 0.05 0 -0.3 0.1 0 -0.3 0.15 0 -0.3 0.2 0 -0.3 0.25 0 -0.3 0.3 0 -0.25 -0.3 0 -0.05 -0.3 0 -0.1 -0.3 0 0.3 0.3 0 -0.2 -0.3 0 0.05 -0.3 0 1.6369e-17 -0.3 0 0.1 -0.3 0 0.15 -0.3 0 0.2 -0.3 0 0.25 -0.3 0 0.3 -0.3 0 0.3 -0.1 0 0.3 -0.15 0 0.3 -0.05 0 0.3 -0.2 0 0.3 -0.25 0 0.3 -1.03662e-17 0 0.3 0.05 0 0.3 0.1 0 0.3 0.15 0 0.3 0.2 0 0.3 0.25 0 -0.15 -0.3 0 -0.25 0.3 0 -0.2 0.3 0 -0.15 0.3 0 -0.1 0.3 0 -0.05 0.3 0 2.85404e-17 0.3 0 0.05 0.3 0 0.1 0.3 0 0.15 0.3 0 0.2 0.3 0 0.25 0.3 0 -0.25 -0.25 0 -0.25 -0.2 0 -0.25 -0.15 0 -0.25 -0.1 0 -0.25 -0.05 0 -0.25 -1.89717e-17 0 -0.25 0.05 0 -0.25 0.1 0 -0.25 0.15 0 -0.25 0.2 0 -0.25 0.25 0 1.91216e-17 -0.25 0 -0.05 -0.25 0 -0.1 -0.25 0 -0.15 -0.25 0 0.05 -0.25 0 0.1 -0.25 0 0.25 -0.25 0 0.2 -0.25 0 0.25 -2.27284e-17 0 0.25 -0.05 0 0.25 0.05 0 0.25 -0.1 0 0.25 -0.15 0 0.25 -0.2 0 0.25 0.15 0 0.25 0.1 0 0.25 0.2 0 0.25 0.25 0 -0.2 -0.25 0 0.15 -0.25 0 -0.2 0.25 0 -0.15 0.25 0 -0.1 0.25 0 -0.05 0.25 0 2.1991e-17 0.25 0 0.05 0.25 0 0.1 0.25 0 0.15 0.25 0 0.2 0.25 0 -0.2 -0.2 0 -0.2 -0.15 0 -0.2 -0.1 0 -0.2 -0.05 0 -0.2 -1.98502e-17 0 -0.2 0.05 0 -0.2 0.1 0 -0.2 0.15 0 -0.2 0.2 0 -0.05 -0.2 0 -0.1 -0.2 0 0.05 -0.2 0 2.00946e-17 -0.2 0 0.1 -0.2 0 -0.15 -0.2 0 0.2 0.2 0 0.2 -0.2 0 0.2 0.1 0 0.2 0.05 0 0.2 -0.15 0 0.2 0.15 0 0.2 -1.99296e-17 0 0.2 -0.05 0 0.2 -0.1 0 0.15 -0.2 0 -0.15 0.2 0 -0.1 0.2 0 -0.05 0.2 0 1.11202e-17 0.2 0 0.05 0.2 0 0.1 0.2 0 0.15 0.2 0 -0.15 -0.15 0 -0.15 -0.1 0 -0.15 -0.05 0 -0.15 -1.15587e-17 0 -0.15 0.05 0 -0.15 0.1 0 -0.15 0.15 0 0.05 -0.15 0 3.03921e-17 -0.15 0 0.15 0.15 0 0.1 -0.15 0 -0.1 -0.15 0 0.15 -0.15 0 0.15 0.1 0 -0.05 -0.15 0 0.15 0.05 0 0.15 -0.1 0 0.15 -3.68611e-17 0 0.15 -0.05 0 -0.1 0.15 0 -0.05 0.15 0 2.11467e-17 0.15 0 0.05 0.15 0 0.1 0.15 0 -0.1 -0.1 0 -0.1 -0.05 0 -0.1 -8.46643e-18 0 -0.1 0.05 0 -0.1 0.1 0 -0.05 -0.1 0 0.1 0.1 0 3.35749e-17 -0.1 0 0.1 0.05 0 0.1 -0.1 0 0.1 -2.55361e-17 0 0.1 -0.05 0 0.05 -0.1 0 -0.05 0.1 0 2.35691e-17 0.1 0 0.05 0.1 0 -0.05 -0.05 0 -0.05 -2.22626e-17 0 -0.05 0.05 0 0.05 -0.05 0 0.05 0.05 0 0.05 -2.62309e-17 0 2.89409e-17 -0.05 0 2.67136e-17 0.05 0 3.14037e-17 -1.87333e-17 0 -0.5 -0.45 0.1 -0.5 -0.5 0.1 -0.5 -0.4 0.1 -0.5 -0.35 0.1 -0.5 -0.3 0.1 -0.5 -0.25 0.1 -0.5 -0.2 0.1 -0.5 -0.15 0.1 -0.5 -0.1 0.1 -0.5 -0.05 0.1 -0.5 0 0.1 -0.5 0.05 0.1 -0.5 0.1 0.1 -0.5 0.15 0.1 -0.5 0.2 0.1 -0.5 0.25 0.1 -0.5 0.3 0.1 -0.5 0.35 0.1 -0.5 0.4 0.1 -0.5 0.45 0.1 -0.5 0.5 0.1 -0.45 -0.5 0.1 -0.4 -0.5 0.1 -0.35 -0.5 0.1 -0.3 -0.5 0.1 -0.25 -0.5 0.1 -0.2 -0.5 0.1 -0.15 -0.5 0.1 -0.1 -0.5 0.1 -0.05 -0.5 0.1 0 -0.5 0.1 0.05 -0.5 0.1 0.1 -0.5 0.1 0.15 -0.5 0.1 0.2 -0.5 0.1 0.25 -0.5 0.1 0.3 -0.5 0.1 0.35 -0.5 0.1 0.4 -0.5 0.1 0.45 -0.5 0.1 0.5 -0.5 0.1 0.5 -0.45 0.1 0.5 -0.4 0.1 0.5 -0.35 0.1 0.5 -0.3 0.1 0.5 -0.25 0.1 0.5 -0.2 0.1 0.5 -0.15 0.1 0.5 -0.1 0.1 0.5 -0.05 0.1 0.5 0 0.1 0.5 0.05 0.1 0.5 0.1 0.1 0.5 0.15 0.1 0.5 0.2 0.1 0.5 0.25 0.1 0.5 0.3 0.1 0.5 0.35 0.1 0.5 0.4 0.1 0.5 0.45 0.1 0.5 0.5 0.1 -0.45 0.5 0.1 -0.4 0.5 0.1 -0.35 0.5 0.1 -0.3 0.5 0.1 -0.25 0.5 0.1 -0.2 0.5 0.1 -0.15 0.5 0.1 -0.1 0.5 0.1 -0.05 0.5 0.1 0 0.5 0.1 0.05 0.5 0.1 0.1 0.5 0.1 0.15 0.5 0.1 0.2 0.5 0.1 0.25 0.5 0.1 0.3 0.5 0.1 0.35 0.5 0.1 0.4 0.5 0.1 0.45 0.5 0.1 -0.45 -0.45 0.1 -0.45 -0.4 0.1 -0.45 -0.35 0.1 -0.45 -0.3 0.1 -0.45 -0.25 0.1 -0.45 -0.2 0.1 -0.45 -0.15 0.1 -0.45 -0.1 0.1 -0.45 -0.05 0.1 -0.45 -4.31619e-18 0.1 -0.45 0.05 0.1 -0.45 0.1 0.1 -0.45 0.15 0.1 -0.45 0.2 0.1 -0.45 0.25 0.1 -0.45 0.3 0.1 -0.45 0.35 0.1 -0.45 0.4 0.1 -0.45 0.45 0.1 -0.4 -0.45 0.1 -0.35 -0.45 0.1 -0.3 -0.45 0.1 -0.25 -0.45 0.1 -0.2 -0.45 0.1 -0.15 -0.45 0.1 -0.1 -0.45 0.1 -0.05 -0.45 0.1 -1.37513e-17 -0.45 0.1 0.05 -0.45 0.1 0.1 -0.45 0.1 0.15 -0.45 0.1 0.2 -0.45 0.1 0.25 -0.45 0.1 0.3 -0.45 0.1 0.35 -0.45 0.1 0.4 -0.45 0.1 0.45 -0.45 0.1 0.45 -0.4 0.1 0.45 -0.35 0.1 0.45 -0.3 0.1 0.45 -0.25 0.1 0.45 -0.2 0.1 0.45 -0.15 0.1 0.45 -0.1 0.1 0.45 -0.05 0.1 0.45 1.07109e-17 0.1 0.45 0.05 0.1 0.45 0.1 0.1 0.45 0.15 0.1 0.45 0.2 0.1 0.45 0.25 0.1 0.45 0.3 0.1 0.45 0.35 0.1 0.45 0.4 0.1 0.45 0.45 0.1 -0.4 0.45 0.1 -0.35 0.45 0.1 -0.3 0.45 0.1 -0.25 0.45 0.1 -0.2 0.45 0.1 -0.15 0.45 0.1 -0.1 0.45 0.1 -0.05 0.45 0.1 8.63249e-18 0.45 0.1 0.05 0.45 0.1 0.1 0.45 0.1 0.15 0.45 0.1 0.2 0.45 0.1 0.25 0.45 0.1 0.3 0.45 0.1 0.35 0.45 0.1 0.4 0.45 0.1 -0.4 -0.4 0.1 -0.4 -0.35 0.1 -0.4 -0.3 0.1 -0.4 -0.25 0.1 -0.4 -0.2 0.1 -0.4 -0.15 0.1 -0.4 -0.1 0.1 -0.4 -0.05 0.1 -0.4 -1.29702e-17 0.1 -0.4 0.05 0.1 -0.4 0.1 0.1 -0.4 0.15 0.1 -0.4 0.2 0.1 -0.4 0.25 0.1 -0.4 0.3 0.1 -0.4 0.35 0.1 -0.4 0.4 0.1 0.4 0.4 0.1 -0.25 -0.4 0.1 -0.3 -0.4 0.1 -0.2 -0.4 0.1 -0.15 -0.4 0.1 -0.1 -0.4 0.1 -0.05 -0.4 0.1 -9.4166e-18 -0.4 0.1 0.05 -0.4 0.1 0.1 -0.4 0.1 0.15 -0.4 0.1 0.2 -0.4 0.1 0.25 -0.4 0.1 0.3 -0.4 0.1 0.35 -0.4 0.1 0.4 -0.4 0.1 0.4 -0.35 0.1 0.4 -0.3 0.1 0.4 -0.25 0.1 0.4 -0.2 0.1 0.4 -0.15 0.1 0.4 -0.1 0.1 0.4 -0.05 0.1 0.4 -3.04832e-18 0.1 0.4 0.05 0.1 0.4 0.1 0.1 0.4 0.15 0.1 0.4 0.2 0.1 0.4 0.25 0.1 0.4 0.3 0.1 0.4 0.35 0.1 -0.35 0.4 0.1 -0.3 0.4 0.1 -0.25 0.4 0.1 -0.2 0.4 0.1 -0.15 0.4 0.1 -0.1 0.4 0.1 -0.05 0.4 0.1 1.13078e-17 0.4 0.1 0.05 0.4 0.1 0.1 0.4 0.1 0.15 0.4 0.1 0.2 0.4 0.1 0.25 0.4 0.1 0.3 0.4 0.1 0.35 0.4 0.1 -0.35 -0.4 0.1 -0.35 -0.35 0.1 -0.35 -0.3 0.1 -0.35 -0.25 0.1 -0.35 -0.2 0.1 -0.35 -0.15 0.1 -0.35 -0.1 0.1 -0.35 -0.05 0.1 -0.35 -1.48001e-17 0.1 -0.35 0.05 0.1 -0.35 0.1 0.1 -0.35 0.15 0.1 -0.35 0.2 0.1 -0.35 0.25 0.1 -0.35 0.3 0.1 -0.35 0.35 0.1 -0.1 -0.35 0.1 -0.15 -0.35 0.1 -0.25 -0.35 0.1 -0.3 -0.35 0.1 -0.2 -0.35 0.1 -0.05 -0.35 0.1 1.19995e-17 -0.35 0.1 0.05 -0.35 0.1 0.1 -0.35 0.1 0.15 -0.35 0.1 0.2 -0.35 0.1 0.25 -0.35 0.1 0.3 -0.35 0.1 0.35 -0.35 0.1 0.35 -0.3 0.1 0.35 -0.2 0.1 0.35 -0.25 0.1 0.35 -0.15 0.1 0.35 -0.1 0.1 0.35 -0.05 0.1 0.35 1.33862e-17 0.1 0.35 0.05 0.1 0.35 0.1 0.1 0.35 0.15 0.1 0.35 0.2 0.1 0.35 0.25 0.1 0.35 0.3 0.1 0.35 0.35 0.1 -0.3 0.35 0.1 -0.25 0.35 0.1 -0.2 0.35 0.1 -0.15 0.35 0.1 -0.1 0.35 0.1 -0.05 0.35 0.1 1.5746e-17 0.35 0.1 0.05 0.35 0.1 0.1 0.35 0.1 0.15 0.35 0.1 0.2 0.35 0.1 0.25 0.35 0.1 0.3 0.35 0.1 -0.3 -0.3 0.1 -0.3 -0.25 0.1 -0.3 -0.2 0.1 -0.3 -0.15 0.1 -0.3 -0.1 0.1 -0.3 -0.05 0.1 -0.3 -2.62398e-17 0.1 -0.3 0.05 0.1 -0.3 0.1 0.1 -0.3 0.15 0.1 -0.3 0.2 0.1 -0.3 0.25 0.1 -0.3 0.3 0.1 -0.25 -0.3 0.1 -0.05 -0.3 0.1 -0.1 -0.3 0.1 0.3 0.3 0.1 -0.2 -0.3 0.1 0.05 -0.3 0.1 1.6369e-17 -0.3 0.1 0.1 -0.3 0.1 0.15 -0.3 0.1 0.2 -0.3 0.1 0.25 -0.3 0.1 0.3 -0.3 0.1 0.3 -0.1 0.1 0.3 -0.15 0.1 0.3 -0.05 0.1 0.3 -0.2 0.1 0.3 -0.25 0.1 0.3 -1.03662e-17 0.1 0.3 0.05 0.1 0.3 0.1 0.1 0.3 0.15 0.1 0.3 0.2 0.1 0.3 0.25 0.1 -0.15 -0.3 0.1 -0.25 0.3 0.1 -0.2 0.3 0.1 -0.15 0.3 0.1 -0.1 0.3 0.1 -0.05 0.3 0.1 2.85404e-17 0.3 0.1 0.05 0.3 0.1 0.1 0.3 0.1 0.15 0.3 0.1 0.2 0.3 0.1 0.25 0.3 0.1 -0.25 -0.25 0.1 -0.25 -0.2 0.1 -0.25 -0.15 0.1 -0.25 -0.1 0.1 -0.25 -0.05 0.1 -0.25 -1.89717e-17 0.1 -0.25 0.05 0.1 -0.25 0.1 0.1 -0.25 0.15 0.1 -0.25 0.2 0.1 -0.25 0.25 0.1 1.91216e-17 -0.25 0.1 -0.05 -0.25 0.1 -0.1 -0.25 0.1 -0.15 -0.25 0.1 0.05 -0.25 0.1 0.1 -0.25 0.1 0.25 -0.25 0.1 0.2 -0.25 0.1 0.25 -2.27284e-17 0.1 0.25 -0.05 0.1 0.25 0.05 0.1 0.25 -0.1 0.1 0.25 -0.15 0.1 0.25 -0.2 0.1 0.25 0.15 0.1 0.25 0.1 0.1 0.25 0.2 0.1 0.25 0.25 0.1 -0.2 -0.25 0.1 0.15 -0.25 0.1 -0.2 0.25 0.1 -0.15 0.25 0.1 -0.1 0.25 0.1 -0.05 0.25 0.1 2.1991e-17 0.25 0.1 0.05 0.25 0.1 0.1 0.25 0.1 0.15 0.25 0.1 0.2 0.25 0.1 -0.2 -0.2 0.1 -0.2 -0.15 0.1 -0.2 -0.1 0.1 -0.2 -0.05 0.1 -0.2 -1.98502e-17 0.1 -0.2 0.05 0.1 -0.2 0.1 0.1 -0.2 0.15 0.1 -0.2 0.2 0.1 -0.05 -0.2 0.1 -0.1 -0.2 0.1 0.05 -0.2 0.1 2.00946e-17 -0.2 0.1 0.1 -0.2 0.1 -0.15 -0.2 0.1 0.2 0.2 0.1 0.2 -0.2 0.1 0.2 0.1 0.1 0.2 0.05 0.1 0.2 -0.15 0.1 0.2 0.15 0.1 0.2 -1.99296e-17 0.1 0.2 -0.05 0.1 0.2 -0.1 0.1 0.15 -0.2 0.1 -0.15 0.2 0.1 -0.1 0.2 0.1 -0.05 0.2 0.1 1.11202e-17 0.2 0.1 0.05 0.2 0.1 0.1 0.2 0.1 0.15 0.2 0.1 -0.15 -0.15 0.1 -0.15 -0.1 0.1 -0.15 -0.05 0.1 -0.15 -1.15587e-17 0.1 -0.15 0.05 0.1 -0.15 0.1 0.1 -0.15 0.15 0.1 0.05 -0.15 0.1 3.03921e-17 -0.15 0.1 0.15 0.15 0.1 0.1 -0.15 0.1 -0.1 -0.15 0.1 0.15 -0.15 0.1 0.15 0.1 0.1 -0.05 -0.15 0.1 0.15 0.05 0.1 0.15 -0.1 0.1 0.15 -3.68611e-17 0.1 0.15 -0.05 0.1 -0.1 0.15 0.1 -0.05 0.15 0.1 2.11467e-17 0.15 0.1 0.05 0.15 0.1 0.1 0.15 0.1 -0.1 -0.1 0.1 -0.1 -0.05 0.1 -0.1 -8.46643e-18 0.1 -0.1 0.05 0.1 -0.1 0.1 0.1 -0.05 -0.1 0.1 0.1 0.1 0.1 3.35749e-17 -0.1 0.1 0.1 0.05 0.1 0.1 -0.1 0.1 0.1 -2.55361e-17 0.1 0.1 -0.05 0.1 0.05 -0.1 0.1 -0.05 0.1 0.1 2.35691e-17 0.1 0.1 0.05 0.1 0.1 -0.05 -0.05 0.1 -0.05 -2.22626e-17 0.1 -0.05 0.05 0.1 0.05 -0.05 0.1 0.05 0.05 0.1 0.05 -2.62309e-17 0.1 2.89409e-17 -0.05 0.1 2.67136e-17 0.05 0.1 3.14037e-17 -1.87333e-17 0.1 
</DataArray>
</Points>
<Cells>
<DataArray Name="connectivity" format="ascii" type="Int64">
4 3 23 80 441 442 462 521 5 4 80 81 443 441 521 522 6 5 81 82 444 443 522 523 7 6 82 83 445 444 523 524 8 7 83 84 446 445 524 525 9 8 84 85 447 446 525 526 10 9 85 86 448 447 526 527 11 10 86 87 449 448 527 528 12 11 87 88 450 449 528 529 13 12 88 89 451 450 529 530 14 13 89 90 452 451 530 531 15 14 90 91 453 452 531 532 16 15 91 92 454 453 532 533 17 16 92 93 455 454 533 534 18 17 93 94 456 455 534 535 19 18 94 95 457 456 535 536 20 19 95 96 458 457 536 537 21 20 96 97 459 458 537 538 22 21 97 98 460 459 538 539 2 22 98 61 461 460 539 502 23 24 99 80 462 463 540 521 24 25 100 99 463 464 541 540 25 26 101 100 464 465 542 541 26 27 102 101 465 466 543 542 27 28 103 102 466 467 544 543 28 29 104 103 467 468 545 544 29 30 105 104 468 469 546 545 30 31 106 105 469 470 547 546 31 32 107 106 470 471 548 547 32 33 108 107 471 472 549 548 33 34 109 108 472 473 550 549 34 35 110 109 473 474 551 550 35 36 111 110 474 475 552 551 36 37 112 111 475 476 553 552 37 38 113 112 476 477 554 553 38 39 114 113 477 478 555 554 39 40 115 114 478 479 556 555 40 41 116 115 479 480 557 556 41 1 42 116 480 481 482 557 42 43 117 116 482 483 558 557 43 44 118 117 483 484 559 558 44 45 119 118 484 485 560 559 45 46 120 119 485 486 561 560 46 47 121 120 486 487 562 561 47 48 122 121 487 488 563 562 48 49 123 122 488 489 564 563 49 50 124 123 489 490 565 564 50 51 125 124 490 491 566 565 51 52 126 125 491 492 567 566 52 53 127 126 492 493 568 567 53 54 128 127 493 494 569 568 54 55 129 128 494 495 570 569 55 56 130 129 495 496 571 570 56 57 131 130 496 497 572 571 57 58 132 131 497 498 573 572 58 59 133 132 498 499 574 573 59 60 134 133 499 500 575 574 60 0 79 134 500 501 520 575 62 61 98 135 503 502 539 576 63 62 135 136 504 503 576 577 64 63 136 137 505 504 577 578 65 64 137 138 506 505 578 579 66 65 138 139 507 506 579 580 67 66 139 140 508 507 580 581 68 67 140 141 509 508 581 582 69 68 141 142 510 509 582 583 70 69 142 143 511 510 583 584 71 70 143 144 512 511 584 585 72 71 144 145 513 512 585 586 73 72 145 146 514 513 586 587 74 73 146 147 515 514 587 588 75 74 147 148 516 515 588 589 76 75 148 149 517 516 589 590 77 76 149 150 518 517 590 591 78 77 150 151 519 518 591 592 79 78 151 134 520 519 592 575 81 80 99 152 522 521 540 593 82 81 152 153 523 522 593 594 83 82 153 154 524 523 594 595 84 83 154 155 525 524 595 596 85 84 155 156 526 525 596 597 86 85 156 157 527 526 597 598 87 86 157 158 528 527 598 599 88 87 158 159 529 528 599 600 89 88 159 160 530 529 600 601 90 89 160 161 531 530 601 602 91 90 161 162 532 531 602 603 92 91 162 163 533 532 603 604 93 92 163 164 534 533 604 605 94 93 164 165 535 534 605 606 95 94 165 166 536 535 606 607 96 95 166 167 537 536 607 608 97 96 167 168 538 537 608 609 98 97 168 135 539 538 609 576 134 151 169 133 575 592 610 574 101 102 170 171 542 543 611 612 102 103 172 170 543 544 613 611 103 104 173 172 544 545 614 613 104 105 174 173 545 546 615 614 105 106 175 174 546 547 616 615 106 107 176 175 547 548 617 616 107 108 177 176 548 549 618 617 108 109 178 177 549 550 619 618 109 110 179 178 550 551 620 619 110 111 180 179 551 552 621 620 111 112 181 180 552 553 622 621 112 113 182 181 553 554 623 622 113 114 183 182 554 555 624 623 114 115 184 183 555 556 625 624 115 116 117 184 556 557 558 625 117 118 185 184 558 559 626 625 118 119 186 185 559 560 627 626 119 120 187 186 560 561 628 627 120 121 188 187 561 562 629 628 121 122 189 188 562 563 630 629 122 123 190 189 563 564 631 630 123 124 191 190 564 565 632 631 124 125 192 191 565 566 633 632 125 126 193 192 566 567 634 633 126 127 194 193 567 568 635 634 127 128 195 194 568 569 636 635 128 129 196 195 569 570 637 636 129 130 197 196 570 571 638 637 130 131 198 197 571 572 639 638 131 132 199 198 572 573 640 639 132 133 169 199 573 574 610 640 136 135 168 200 577 576 609 641 137 136 200 201 578 577 641 642 138 137 201 202 579 578 642 643 139 138 202 203 580 579 643 644 140 139 203 204 581 580 644 645 141 140 204 205 582 581 645 646 142 141 205 206 583 582 646 647 143 142 206 207 584 583 647 648 144 143 207 208 585 584 648 649 145 144 208 209 586 585 649 650 146 145 209 210 587 586 650 651 147 146 210 211 588 587 651 652 148 147 211 212 589 588 652 653 149 148 212 213 590 589 653 654 150 149 213 214 591 590 654 655 151 150 214 169 592 591 655 610 100 101 171 215 541 542 612 656 99 100 215 152 540 541 656 593 153 152 215 216 594 593 656 657 154 153 216 217 595 594 657 658 155 154 217 218 596 595 658 659 156 155 218 219 597 596 659 660 157 156 219 220 598 597 660 661 158 157 220 221 599 598 661 662 159 158 221 222 600 599 662 663 160 159 222 223 601 600 663 664 161 160 223 224 602 601 664 665 162 161 224 225 603 602 665 666 163 162 225 226 604 603 666 667 164 163 226 227 605 604 667 668 165 164 227 228 606 605 668 669 166 165 228 229 607 606 669 670 167 166 229 230 608 607 670 671 168 167 230 200 609 608 671 641 173 174 231 232 614 615 672 673 171 170 233 234 612 611 674 675 170 172 235 233 611 613 676 674 174 175 236 231 615 616 677 672 175 176 237 236 616 617 678 677 176 177 238 237 617 618 679 678 177 178 239 238 618 619 680 679 178 179 240 239 619 620 681 680 179 180 241 240 620 621 682 681 180 181 242 241 621 622 683 682 181 182 243 242 622 623 684 683 182 183 244 243 623 624 685 684 183 184 185 244 624 625 626 685 185 186 245 244 626 627 686 685 187 188 246 247 628 629 687 688 186 187 247 245 627 628 688 686 188 189 248 246 629 630 689 687 189 190 249 248 630 631 690 689 190 191 250 249 631 632 691 690 191 192 251 250 632 633 692 691 192 193 252 251 633 634 693 692 193 194 253 252 634 635 694 693 194 195 254 253 635 636 695 694 195 196 255 254 636 637 696 695 196 197 256 255 637 638 697 696 197 198 257 256 638 639 698 697 198 199 258 257 639 640 699 698 199 169 214 258 640 610 655 699 215 171 234 216 656 612 675 657 172 173 232 235 613 614 673 676 201 200 230 259 642 641 671 700 202 201 259 260 643 642 700 701 203 202 260 261 644 643 701 702 204 203 261 262 645 644 702 703 205 204 262 263 646 645 703 704 206 205 263 264 647 646 704 705 207 206 264 265 648 647 705 706 208 207 265 266 649 648 706 707 209 208 266 267 650 649 707 708 210 209 267 268 651 650 708 709 211 210 268 269 652 651 709 710 212 211 269 270 653 652 710 711 213 212 270 271 654 653 711 712 214 213 271 258 655 654 712 699 217 216 234 272 658 657 675 713 218 217 272 273 659 658 713 714 219 218 273 274 660 659 714 715 220 219 274 275 661 660 715 716 221 220 275 276 662 661 716 717 222 221 276 277 663 662 717 718 223 222 277 278 664 663 718 719 224 223 278 279 665 664 719 720 225 224 279 280 666 665 720 721 226 225 280 281 667 666 721 722 227 226 281 282 668 667 722 723 228 227 282 283 669 668 723 724 229 228 283 284 670 669 724 725 230 229 284 259 671 670 725 700 234 233 285 272 675 674 726 713 231 236 286 287 672 677 727 728 258 271 288 257 699 712 729 698 233 235 289 285 674 676 730 726 237 238 290 291 678 679 731 732 238 239 292 290 679 680 733 731 239 240 293 292 680 681 734 733 240 241 294 293 681 682 735 734 241 242 295 294 682 683 736 735 242 243 296 295 683 684 737 736 243 244 245 296 684 685 686 737 248 249 297 298 689 690 738 739 249 250 299 297 690 691 740 738 247 246 300 301 688 687 741 742 246 248 298 300 687 689 739 741 245 247 301 296 686 688 742 737 250 251 302 299 691 692 743 740 251 252 303 302 692 693 744 743 252 253 304 303 693 694 745 744 253 254 305 304 694 695 746 745 254 255 306 305 695 696 747 746 255 256 307 306 696 697 748 747 256 257 288 307 697 698 729 748 235 232 308 289 676 673 749 730 232 231 287 308 673 672 728 749 260 259 284 309 701 700 725 750 261 260 309 310 702 701 750 751 262 261 310 311 703 702 751 752 263 262 311 312 704 703 752 753 264 263 312 313 705 704 753 754 265 264 313 314 706 705 754 755 266 265 314 315 707 706 755 756 267 266 315 316 708 707 756 757 268 267 316 317 709 708 757 758 269 268 317 318 710 709 758 759 270 269 318 319 711 710 759 760 271 270 319 288 712 711 760 729 236 237 291 286 677 678 732 727 273 272 285 320 714 713 726 761 274 273 320 321 715 714 761 762 275 274 321 322 716 715 762 763 276 275 322 323 717 716 763 764 277 276 323 324 718 717 764 765 278 277 324 325 719 718 765 766 279 278 325 326 720 719 766 767 280 279 326 327 721 720 767 768 281 280 327 328 722 721 768 769 282 281 328 329 723 722 769 770 283 282 329 330 724 723 770 771 284 283 330 309 725 724 771 750 286 291 331 332 727 732 772 773 287 286 332 333 728 727 773 774 308 287 333 334 749 728 774 775 291 290 335 331 732 731 776 772 290 292 336 335 731 733 777 776 294 295 337 338 735 736 778 779 295 296 301 337 736 737 742 778 299 302 339 340 740 743 780 781 302 303 341 339 743 744 782 780 297 299 340 342 738 740 781 783 298 297 342 343 739 738 783 784 301 300 344 337 742 741 785 778 300 298 343 344 741 739 784 785 304 305 345 346 745 746 786 787 305 306 347 345 746 747 788 786 306 307 348 347 747 748 789 788 307 288 319 348 748 729 760 789 289 308 334 349 730 749 775 790 285 289 349 320 726 730 790 761 292 293 350 336 733 734 791 777 303 304 346 341 744 745 787 782 310 309 330 351 751 750 771 792 311 310 351 352 752 751 792 793 312 311 352 353 753 752 793 794 313 312 353 354 754 753 794 795 314 313 354 355 755 754 795 796 315 314 355 356 756 755 796 797 316 315 356 357 757 756 797 798 317 316 357 358 758 757 798 799 318 317 358 359 759 758 799 800 319 318 359 348 760 759 800 789 293 294 338 350 734 735 779 791 321 320 349 360 762 761 790 801 322 321 360 361 763 762 801 802 323 322 361 362 764 763 802 803 324 323 362 363 765 764 803 804 325 324 363 364 766 765 804 805 326 325 364 365 767 766 805 806 327 326 365 366 768 767 806 807 328 327 366 367 769 768 807 808 329 328 367 368 770 769 808 809 330 329 368 351 771 770 809 792 333 332 369 370 774 773 810 811 331 335 371 372 772 776 812 813 335 336 373 371 776 777 814 812 334 333 370 374 775 774 811 815 348 359 375 347 789 800 816 788 337 344 376 338 778 785 817 779 341 346 377 378 782 787 818 819 344 343 379 376 785 784 820 817 346 345 380 377 787 786 821 818 339 341 378 381 780 782 819 822 340 339 381 382 781 780 822 823 342 340 382 383 783 781 823 824 343 342 383 379 784 783 824 820 350 338 376 384 791 779 817 825 345 347 375 380 786 788 816 821 349 334 374 360 790 775 815 801 352 351 368 385 793 792 809 826 353 352 385 386 794 793 826 827 354 353 386 387 795 794 827 828 355 354 387 388 796 795 828 829 356 355 388 389 797 796 829 830 357 356 389 390 798 797 830 831 358 357 390 391 799 798 831 832 359 358 391 375 800 799 832 816 336 350 384 373 777 791 825 814 332 331 372 369 773 772 813 810 361 360 374 392 802 801 815 833 362 361 392 393 803 802 833 834 363 362 393 394 804 803 834 835 364 363 394 395 805 804 835 836 365 364 395 396 806 805 836 837 366 365 396 397 807 806 837 838 367 366 397 398 808 807 838 839 368 367 398 385 809 808 839 826 372 371 399 400 813 812 840 841 375 391 401 380 816 832 842 821 371 373 402 399 812 814 843 840 374 370 403 392 815 811 844 833 373 384 404 402 814 825 845 843 377 380 401 405 818 821 842 846 369 372 400 406 810 813 841 847 378 377 405 407 819 818 846 848 404 379 383 408 845 820 824 849 381 378 407 409 822 819 848 850 382 381 409 410 823 822 850 851 383 382 410 408 824 823 851 849 370 369 406 403 811 810 847 844 386 385 398 411 827 826 839 852 387 386 411 412 828 827 852 853 388 387 412 413 829 828 853 854 389 388 413 414 830 829 854 855 390 389 414 415 831 830 855 856 391 390 415 401 832 831 856 842 393 392 403 416 834 833 844 857 394 393 416 417 835 834 857 858 395 394 417 418 836 835 858 859 396 395 418 419 837 836 859 860 397 396 419 420 838 837 860 861 398 397 420 411 839 838 861 852 403 406 421 416 844 847 862 857 405 401 415 422 846 842 856 863 406 400 423 421 847 841 864 862 407 405 422 424 848 846 863 865 404 408 425 402 845 849 866 843 410 409 426 427 851 850 867 868 408 410 427 425 849 851 868 866 399 402 425 428 840 843 866 869 400 399 428 423 841 840 869 864 412 411 420 429 853 852 861 870 413 412 429 430 854 853 870 871 414 413 430 431 855 854 871 872 415 414 431 422 856 855 872 863 409 407 424 426 850 848 865 867 417 416 421 432 858 857 862 873 418 417 432 433 859 858 873 874 419 418 433 434 860 859 874 875 420 419 434 429 861 860 875 870 428 425 427 435 869 866 868 876 426 424 436 437 867 865 877 878 422 431 436 424 863 872 877 865 423 428 435 438 864 869 876 879 427 426 437 435 868 867 878 876 421 423 438 432 862 864 879 873 430 429 434 439 871 870 875 880 431 430 439 436 872 871 880 877 433 432 438 440 874 873 879 881 434 433 440 439 875 874 881 880 437 436 439 440 878 877 880 881 435 437 440 438 876 878 881 879 376 379 404 384 817 820 845 825 
</DataArray>
<DataArray Name="offsets" format="ascii" type="Int64">